LAMMPS (22 Jul 2025 - Update 3)
  using 1 OpenMP thread(s) per MPI task
Reading data file ...
  orthogonal box = (-122.7 -85 -85) to (122.7 85 85)
  3 by 1 by 2 MPI processor grid
  reading atoms ...
  28860 atoms
  reading velocities ...
  28860 velocities
  read_data CPU = 0.180 seconds
WARNING: No fixes with time integration, atoms won't move
For more information see https://docs.lammps.org/err0028 (src/verlet.cpp:60)
Setting up Verlet run ...
  Unit style    : metal
  Current step  : 0
  Time step     : 0.001
WARNING: No pairwise cutoff or binsize set. Atom sorting therefore disabled. (src/atom.cpp:2499)
WARNING: Communication cutoff is 0.0. No ghost atoms will be generated. Energies and forces may be wrong and atoms may get lost. (src/comm_brick.cpp:212)
Per MPI rank memory allocation (min/avg/max) = 2.297 | 2.297 | 2.297 Mbytes
   Step          Temp          E_pair         E_mol          TotEng         Press     
         0   298.51495      0              0              1113.5559      167.7099     
Loop time of 2.76033e-06 on 6 procs for 0 steps with 28860 atoms

96.6% CPU use with 6 MPI tasks x 1 OpenMP threads

MPI task timing breakdown:
Section |  min time  |  avg time  |  max time  |%varavg| %total
---------------------------------------------------------------
Pair    | 0          | 0          | 0          |   0.0 |  0.00
Neigh   | 0          | 0          | 0          |   0.0 |  0.00
Comm    | 0          | 0          | 0          |   0.0 |  0.00
Output  | 0          | 0          | 0          |   0.0 |  0.00
Modify  | 0          | 0          | 0          |   0.0 |  0.00
Other   |            | 2.76e-06   |            |       |100.00

Nlocal:           4810 ave        4945 max        4669 min
Histogram: 2 0 0 0 0 2 0 0 1 1
Nghost:              0 ave           0 max           0 min
Histogram: 6 0 0 0 0 0 0 0 0 0
Neighs:              0 ave           0 max           0 min
Histogram: 6 0 0 0 0 0 0 0 0 0

Total # of neighbors = 0
Ave neighs/atom = 0
Neighbor list builds = 0
Dangerous builds = 0
6331 atoms in group track
28362 atoms in group Nanowire
1801 atoms in group sinkL
1806 atoms in group sinkR
3607 atoms in group gSink
25253 atoms in group gInner
0 atoms in group track_in_sink
Reading eam potential file /home/santi/Documents/lammps2025/build/Ag_u3.eam with DATE: 2007-06-11
Neighbor list info ...
  update: every = 1 steps, delay = 0 steps, check = yes
  max neighbors/atom: 2000, page size: 100000
  master list distance cutoff = 7.55
  ghost atom cutoff = 7.55
  binsize = 3.775, bins = 66 46 46
  1 neighbor lists, perpetual/occasional/extra = 1 0 0
  (1) pair eam, perpetual
      attributes: half, newton on
      pair build: half/bin/atomonly/newton
      stencil: half/bin/3d
      bin: standard
Setting up cg style minimization ...
  Unit style    : metal
  Current step  : 0
Per MPI rank memory allocation (min/avg/max) = 6.17 | 6.363 | 6.557 Mbytes
   Step          Time           Temp          c_Tnw         c_Ttrack       c_Tinner       c_Tsink        v_ke_max        PotEng         KinEng         TotEng         Press     
         0   0              298.52049      298.42029      303.36225      299.44898      292.10123      0.33654194    -2.743455       0.038585465   -2.7048696      93.391344    
       210   0.21           298.52049      298.42029      303.36225      299.44898      292.10123      0.33654194    -2.7836451      0.038585465   -2.7450596      104.24217    
Loop time of 3.29824 on 6 procs for 210 steps with 28860 atoms

99.4% CPU use with 6 MPI tasks x 1 OpenMP threads

Minimization stats:
  Stopping criterion = energy tolerance
  Energy initial, next-to-last, final = 
     -2.74345504040487  -2.78364510454057  -2.78364510478683
  Force two-norm initial, final = 111.06563 0.0063874055
  Force max component initial, final = 1.8494183 9.5289977e-05
  Final line search alpha, max atom move = 1 9.5289977e-05
  Iterations, force evaluations = 210 414

MPI task timing breakdown:
Section |  min time  |  avg time  |  max time  |%varavg| %total
---------------------------------------------------------------
Pair    | 3.21       | 3.2117     | 3.2132     |   0.1 | 97.38
Neigh   | 0          | 0          | 0          |   0.0 |  0.00
Comm    | 0.043518   | 0.046102   | 0.048577   |   0.8 |  1.40
Output  | 0          | 0          | 0          |   0.0 |  0.00
Modify  | 0          | 0          | 0          |   0.0 |  0.00
Other   |            | 0.04045    |            |       |  1.23

Nlocal:           4810 ave        4945 max        4669 min
Histogram: 2 0 0 0 0 2 0 0 1 1
Nghost:           2850 ave        2991 max        2715 min
Histogram: 1 1 0 0 2 0 0 0 0 2
Neighs:         199936 ave      219991 max      180078 min
Histogram: 1 1 1 0 0 0 0 1 1 1

Total # of neighbors = 1199616
Ave neighs/atom = 41.566736
Neighbor list builds = 0
Dangerous builds = 0
Setting up cg style minimization ...
  Unit style    : metal
  Current step  : 210
WARNING: Energy due to 3 extra global DOFs will be included in minimizer energies
 (src/min.cpp:222)
Per MPI rank memory allocation (min/avg/max) = 6.295 | 6.488 | 6.682 Mbytes
   Step          Time           Temp          c_Tnw         c_Ttrack       c_Tinner       c_Tsink        v_ke_max        PotEng         KinEng         TotEng         Press     
       210   0.21           298.52049      298.42029      303.36225      299.44898      292.10123      0.33654194    -2.7836451      0.038585465   -2.7450596      104.24217    
       238   0.238          298.52049      298.42029      303.36225      299.44898      292.10123      0.33654194    -2.7836833      0.038585465   -2.7450978      251.33438    
Loop time of 0.240197 on 6 procs for 28 steps with 28860 atoms

98.9% CPU use with 6 MPI tasks x 1 OpenMP threads

Minimization stats:
  Stopping criterion = energy tolerance
  Energy initial, next-to-last, final = 
     -2.78364510478683  -2.78368330705157  -2.78368330732027
  Force two-norm initial, final = 842.98457 1.2178605
  Force max component initial, final = 842.98457 1.1329645
  Final line search alpha, max atom move = 7.4912162e-05 8.4872821e-05
  Iterations, force evaluations = 28 32

MPI task timing breakdown:
Section |  min time  |  avg time  |  max time  |%varavg| %total
---------------------------------------------------------------
Pair    | 0.22629    | 0.22678    | 0.22706    |   0.1 | 94.42
Neigh   | 0          | 0          | 0          |   0.0 |  0.00
Comm    | 0.0037282  | 0.0041517  | 0.0045036  |   0.4 |  1.73
Output  | 0          | 0          | 0          |   0.0 |  0.00
Modify  | 0          | 0          | 0          |   0.0 |  0.00
Other   |            | 0.009261   |            |       |  3.86

Nlocal:           4810 ave        4964 max        4595 min
Histogram: 1 0 0 0 2 0 1 0 0 2
Nghost:           2850 ave        3065 max        2696 min
Histogram: 2 0 0 1 0 2 0 0 0 1
Neighs:         186176 ave      205729 max      170288 min
Histogram: 2 0 1 0 0 1 0 1 0 1

Total # of neighbors = 1117054
Ave neighs/atom = 38.70596
Neighbor list builds = 0
Dangerous builds = 0
Setting up cg style minimization ...
  Unit style    : metal
  Current step  : 238
Per MPI rank memory allocation (min/avg/max) = 6.295 | 6.488 | 6.682 Mbytes
   Step          Time           Temp          c_Tnw         c_Ttrack       c_Tinner       c_Tsink        v_ke_max        PotEng         KinEng         TotEng         Press     
       238   0.238          298.52049      298.42029      303.36225      299.44898      292.10123      0.33654194    -2.7836833      0.038585465   -2.7450978      251.33438    
       263   0.263          298.52049      298.42029      303.36225      299.44898      292.10123      0.33654194    -2.7837011      0.038585465   -2.7451156      133.26134    
Loop time of 0.362685 on 6 procs for 25 steps with 28860 atoms

99.7% CPU use with 6 MPI tasks x 1 OpenMP threads

Minimization stats:
  Stopping criterion = energy tolerance
  Energy initial, next-to-last, final = 
     -2.78368330732028  -2.78370111068523  -2.78370111087205
  Force two-norm initial, final = 0.44673891 0.0046503578
  Force max component initial, final = 0.0069219417 0.00013871626
  Final line search alpha, max atom move = 1 0.00013871626
  Iterations, force evaluations = 25 50

MPI task timing breakdown:
Section |  min time  |  avg time  |  max time  |%varavg| %total
---------------------------------------------------------------
Pair    | 0.3509     | 0.35163    | 0.3523     |   0.1 | 96.95
Neigh   | 0          | 0          | 0          |   0.0 |  0.00
Comm    | 0.0051563  | 0.0059964  | 0.0068849  |   0.8 |  1.65
Output  | 0          | 0          | 0          |   0.0 |  0.00
Modify  | 0          | 0          | 0          |   0.0 |  0.00
Other   |            | 0.005063   |            |       |  1.40

Nlocal:           4810 ave        4963 max        4596 min
Histogram: 1 0 0 0 2 0 1 0 0 2
Nghost:           2850 ave        3064 max        2697 min
Histogram: 2 0 0 1 0 2 0 0 0 1
Neighs:         186328 ave      205765 max      170516 min
Histogram: 1 1 1 0 0 1 0 1 0 1

Total # of neighbors = 1117970
Ave neighs/atom = 38.737699
Neighbor list builds = 0
Dangerous builds = 0
Setting up Verlet run ...
  Unit style    : metal
  Current step  : 263
  Time step     : 0.001
Per MPI rank memory allocation (min/avg/max) = 5.17 | 5.363 | 5.557 Mbytes
   Step          Time           Temp          c_Tnw         c_Ttrack       c_Tinner       c_Tsink        v_ke_max        PotEng         KinEng         TotEng         Press     
       263   0              300            300.22281      302.813        300.34265      297.68367      0.28202013    -2.7837011      0.0387767     -2.7449244      134.09461    
       500   0.237          175.17286      175.1422       176.82564      174.6815       178.66233      0.20054143    -2.7595298      0.022642084   -2.7368878      401.5509     
      1000   0.737          227.03381      227.05198      225.87155      226.96141      227.60379      0.20083711    -2.7538744      0.029345406   -2.724529      -48.567175    
      1500   1.237          251.90209      251.8721       251.16852      251.82388      252.51958      0.24713546    -2.7493766      0.032559772   -2.7168168     -267.36297    
      2000   1.737          274.12285      274.41609      274.53329      275.13751      267.09343      0.28084372    -2.7474278      0.035431931   -2.7119959      60.905442    
      2500   2.237          284.26362      284.61411      285.98749      283.76535      287.83168      0.2687742     -2.7461266      0.036742683   -2.7093839      181.28926    
      3000   2.737          287.62974      287.58145      288.55325      287.11443      291.31805      0.32229865    -2.744831       0.037177773   -2.7076533      17.235156    
      3500   3.237          291.93925      291.77855      289.27686      292.34406      289.18541      0.28967954    -2.7442115      0.037734803   -2.7064767     -46.484853    
      4000   3.737          296.81111      296.91268      295.14679      297.63615      291.11591      0.30692395    -2.7438669      0.038364518   -2.7055023      28.61389     
      4500   4.237          299.42408      299.33603      299.70948      300.47204      292.16849      0.34512993    -2.743638       0.038702258   -2.7049358      70.784664    
      5000   4.737          300.4882       300.66931      301.33895      301.64461      292.47346      0.34577346    -2.7431555      0.038839802   -2.7043157      60.057397    
      5500   5.237          302.13092      302.2349       302.37027      302.05991      302.71198      0.31636116    -2.7431573      0.039052133   -2.7041051      13.922586    
      6000   5.737          302.39428      302.48745      299.38683      303.33964      295.85799      0.28086461    -2.7432236      0.039086175   -2.7041375      5.7485866    
      6500   6.237          302.51294      302.83209      306.10176      302.87851      300.03679      0.32825164    -2.7428217      0.039101511   -2.7037202      22.343845    
      7000   6.737          301.9973       302.22361      302.64112      302.16915      300.8776       0.29653987    -2.7429523      0.039034862   -2.7039174      11.740961    
      7500   7.237          300.91182      300.79904      300.22084      300.94989      300.72868      0.30884687    -2.7432422      0.038894557   -2.7043476      49.617711    
      8000   7.737          298.76134      298.56875      295.54297      299.28863      295.15171      0.40631794    -2.7434834      0.038616596   -2.7048668      21.624588    
      8500   8.237          298.91152      298.89112      296.70792      299.36892      295.79138      0.26703541    -2.7436005      0.038636008   -2.7049645      30.716845    
      9000   8.737          299.94766      300.06207      302.12867      299.44882      303.52409      0.44539314    -2.7437012      0.038769934   -2.7049312      54.064429    
      9500   9.237          300.57109      300.45736      300.25926      300.26992      302.76352      0.30771652    -2.7431439      0.038850517   -2.7042934      14.672075    
     10000   9.737          299.26532      299.28081      301.57887      297.8623       309.17332      0.347639      -2.743276       0.038681738   -2.7045943     -5.9842603    
     10500   10.237         299.10476      299.26265      298.71066      299.1429       298.92064      0.32295005    -2.7434359      0.038660985   -2.7047749      32.162981    
     11000   10.737         297.88135      297.98458      296.07563      297.88547      297.93511      0.292619      -2.7434102      0.038502852   -2.7049074      27.895128    
     11500   11.237         297.20252      297.53753      301.87497      297.78538      293.20326      0.3323406     -2.7432649      0.038415109   -2.7048498     -9.1654009    
     12000   11.737         299.68156      299.9841       295.83212      299.32365      302.27108      0.28101057    -2.7435648      0.03873554    -2.7048292      21.723529    
     12500   12.237         300.12494      299.90678      297.34765      300.06971      300.59494      0.28295717    -2.7432995      0.038792849   -2.7045067      12.803424    
     13000   12.737         300.46948      300.36801      302.53524      300.50317      300.3169       0.2913234     -2.7434302      0.038837383   -2.7045928      7.7228939    
     13500   13.237         299.93681      300.20146      298.89057      300.34916      297.13237      0.42643699    -2.7433433      0.038768532   -2.7045747      10.342025    
     14000   13.737         297.41634      297.43479      301.3657       297.07687      299.87606      0.45512029    -2.7430268      0.038442747   -2.704584       33.863685    
     14500   14.237         300.24706      300.22776      300.72414      298.97442      309.2423       0.29953277    -2.743005       0.038808634   -2.7041964      21.20221     
     15000   14.737         300.18516      300.27228      298.31504      299.20165      307.15573      0.30753896    -2.7433351      0.038800633   -2.7045344     -6.4465078    
     15500   15.237         302.17431      302.23478      304.46723      301.77729      305.03837      0.43195213    -2.7433936      0.039057742   -2.7043359      33.83448     
     16000   15.737         302.13761      301.86671      307.30156      302.88625      296.97886      0.26194746    -2.7435719      0.039052998   -2.7045189      44.221413    
     16500   16.237         297.92398      297.86896      301.22468      298.07331      296.96089      0.31499099    -2.7431491      0.038508363   -2.7046408      38.659562    
     17000   16.737         301.34774      301.59706      301.99598      300.99937      303.87085      0.31486028    -2.7432718      0.038950903   -2.7043209     -3.0317538    
     17500   17.237         301.97874      302.21936      301.98994      301.79872      303.32309      0.29717723    -2.7431631      0.039032463   -2.7041306     -8.0269329    
     18000   17.737         302.3915       302.65252      303.74617      302.00193      305.20348      0.34244327    -2.7431997      0.039085815   -2.7041139      59.489219    
     18500   18.237         301.66884      301.55435      303.89647      302.29244      297.38557      0.25854876    -2.7432271      0.038992407   -2.7042347      26.446403    
     19000   18.737         300.99608      301.14871      298.11782      301.29041      299.01844      0.28645162    -2.7430785      0.038905449   -2.704173       13.680173    
     19500   19.237         299.54905      299.36934      296.75668      298.32832      308.18057      0.31294954    -2.743291       0.038718412   -2.7045725      19.660682    
     20000   19.737         299.27507      299.34366      299.234        299.2604       299.46079      0.30723535    -2.7432619      0.038682998   -2.7045789     -4.2155224    
     20263   20             301.07313      301.02304      296.93403      301.45614      298.47445      0.27898631    -2.743293       0.038915408   -2.7043776      18.418       
Loop time of 142.268 on 6 procs for 20000 steps with 28860 atoms

Performance: 12.146 ns/day, 1.976 hours/ns, 140.580 timesteps/s, 4.057 Matom-step/s
99.4% CPU use with 6 MPI tasks x 1 OpenMP threads

MPI task timing breakdown:
Section |  min time  |  avg time  |  max time  |%varavg| %total
---------------------------------------------------------------
Pair    | 109.14     | 113.53     | 122.68     |  44.8 | 79.80
Neigh   | 0          | 0          | 0          |   0.0 |  0.00
Comm    | 13.576     | 22.694     | 27.158     | 100.2 | 15.95
Output  | 0.0061346  | 0.0070046  | 0.0077952  |   0.7 |  0.00
Modify  | 4.4495     | 4.6889     | 5.1575     |  10.3 |  3.30
Other   |            | 1.352      |            |       |  0.95

Nlocal:           4810 ave        4968 max        4604 min
Histogram: 1 0 0 1 1 0 1 0 0 2
Nghost:           2850 ave        3056 max        2692 min
Histogram: 2 0 0 1 0 1 1 0 0 1
Neighs:         185853 ave      205409 max      169436 min
Histogram: 1 1 1 0 0 1 0 1 0 1

Total # of neighbors = 1115118
Ave neighs/atom = 38.638877
Neighbor list builds = 0
Dangerous builds = 0
Setting up Verlet run ...
  Unit style    : metal
  Current step  : 0
  Time step     : 0.0001
Per MPI rank memory allocation (min/avg/max) = 5.978 | 6.18 | 6.375 Mbytes
   Step          Time           Temp          c_Tnw         c_Ttrack       c_Tinner       c_Tsink        v_ke_max        PotEng         KinEng         TotEng         Press     
         0   0              301.07313      301.02304      296.93403      301.45614      298.47445      0.27898631    -2.743293       0.038915408   -2.7043776      18.418       
       500   0.05           905.56216      904.93718      3050           991.70556      302.57059      3.265299      -2.7085701      0.11704904    -2.591521       1254.1062    
      1000   0.1            1524.7726      1515.0358      5800           1699.4562      301.92571      9.3003471     -2.6327212      0.1970855     -2.4356357      3242.0811    
Loop time of 8.42791 on 6 procs for 1000 steps with 28860 atoms

Performance: 1.025 ns/day, 23.411 hours/ns, 118.653 timesteps/s, 3.424 Matom-step/s
99.2% CPU use with 6 MPI tasks x 1 OpenMP threads

MPI task timing breakdown:
Section |  min time  |  avg time  |  max time  |%varavg| %total
---------------------------------------------------------------
Pair    | 6.1588     | 6.4577     | 7.0903     |  13.0 | 76.62
Neigh   | 0.0099871  | 0.011926   | 0.014742   |   1.3 |  0.14
Comm    | 0.71591    | 1.3543     | 1.6593     |  28.7 | 16.07
Output  | 0.00026157 | 0.00027504 | 0.00029631 |   0.0 |  0.00
Modify  | 0.56247    | 0.57007    | 0.57451    |   0.5 |  6.76
Other   |            | 0.03366    |            |       |  0.40

Nlocal:           4810 ave        4910 max        4728 min
Histogram: 1 1 1 0 0 1 1 0 0 1
Nghost:        2852.33 ave        2932 max        2750 min
Histogram: 1 0 0 1 1 0 0 1 1 1
Neighs:         204006 ave      228709 max      182722 min
Histogram: 2 0 0 1 0 0 1 1 0 1

Total # of neighbors = 1224038
Ave neighs/atom = 42.412959
Neighbor list builds = 2
Dangerous builds = 0
Setting up Verlet run ...
  Unit style    : metal
  Current step  : 1000
  Time step     : 0.0001
Per MPI rank memory allocation (min/avg/max) = 5.994 | 6.243 | 6.375 Mbytes
   Step          Time           Temp          c_Tnw         c_Ttrack       c_Tinner       c_Tsink        v_ke_max        PotEng         KinEng         TotEng         Press     
      1000   0.1            1524.7726      1515.0358      5800           1699.4562      301.92571      9.3003471     -2.6327212      0.1970855     -2.4356357      3242.0811    
      1500   0.15           1393.982       1382.572       5131.573       1550.1608      300.68344      10.709485     -2.6165323      0.18018007    -2.4363522      3319.1619    
      2000   0.2            1394.8719      1381.9104      5055.8654      1551.132       301.00443      10.219709     -2.6172839      0.1802951     -2.4369888      3024.0033    
      2500   0.25           1396.9771      1387.4639      4984.2151      1553.5698      300.78184      7.2127115     -2.6181695      0.18056721    -2.4376023      2730.691     
      3000   0.3            1387.4173      1378.5669      4913.1105      1542.2324      303.6671       6.8768456     -2.6174982      0.17933155    -2.4381666      2473.0465    
      3500   0.35           1392.8395      1384.4561      4891.7856      1548.9291      300.16547      6.5564286     -2.6188876      0.1800324     -2.4388552      2166.7633    
      4000   0.4            1384.2624      1377.4801      4803.1735      1538.5787      304.0046       6.5165025     -2.6185099      0.17892376    -2.4395861      1887.4538    
      4500   0.45           1372.9973      1366.923       4737.2998      1526.2387      300.26377      6.9688168     -2.6177469      0.17746769    -2.4402792      1597.9289    
      5000   0.5            1364.9199      1357.5296      4684.4489      1516.2236      305.75279      6.9110892     -2.6172848      0.17642363    -2.4408612      1309.6518    
      5500   0.55           1347.3719      1341.372       4570.0526      1497.111       299.15698      6.4246091     -2.6157176      0.17415546    -2.4415621      1054.5285    
      6000   0.6            1332.5054      1327.1741      4485.2937      1479.7547      301.72168      6.6292476     -2.6143937      0.17223387    -2.4421598      812.69596    
      6500   0.65           1301.373       1298.0878      4332.9149      1444.2755      301.02015      7.1829242     -2.6109816      0.16820983    -2.4427718      630.76766    
      7000   0.7            1275.0891      1274.3238      4217.4309      1413.7328      304.55293      7.5823406     -2.6080958      0.1648125     -2.4432833      439.02926    
      7500   0.75           1248.3036      1246.3229      4089.4526      1383.541       301.61233      6.6244276     -2.6052311      0.16135031    -2.4438808      263.01914    
      8000   0.8            1220.6124      1218.621       3962.1759      1351.1013      307.16674      6.2206464     -2.6022608      0.15777106    -2.4444897      120.5579     
      8500   0.85           1187.1473      1183.7532      3822.1014      1313.6166      301.84078      6.3201818     -2.5984766      0.15344552    -2.4450311      2.346966     
      9000   0.9            1158.0471      1154.3753      3692.6618      1279.9583      304.65118      6.8554912     -2.5952498      0.14968414    -2.4455657     -135.46455    
      9500   0.95           1126.2905      1122.7133      3568.469       1243.4367      306.2544       6.099054      -2.5916849      0.14557943    -2.4461055     -246.87524    
     10000   1              1102.3716      1100.2029      3477.9395      1217.1436      298.95511      7.1172036     -2.5892487      0.14248777    -2.446761      -338.42983    
     10500   1.05           1080.5292      1077.9026      3397.5189      1191.7857      301.72472      6.0324092     -2.586741       0.13966452    -2.4470764     -424.92209    
     11000   1.1            1057.0924      1054.0696      3316.3808      1164.9275      302.2404       5.9855712     -2.5841255      0.13663518    -2.4474903     -486.73517    
     11500   1.15           1043.5258      1041.0403      3254.7999      1149.5727      301.19315      7.530613      -2.5828915      0.13488162    -2.4480099     -552.16989    
     12000   1.2            1027.9029      1024.5056      3211.9168      1130.665       308.56824      6.696783      -2.581277       0.13286227    -2.4484147     -590.00913    
     12500   1.25           1013.6768      1010.0441      3159.6671      1115.1994      303.01805      6.4911919     -2.5798163      0.13102347    -2.4487928     -636.47977    
     13000   1.3            1001.8249      999.09298      3116.9621      1101.8639      301.5523       6.2507468     -2.578768       0.12949155    -2.4492764     -672.10395    
     13500   1.35           988.74071      986.08776      3070.249       1087.4297      297.9181       6.3839089     -2.5775463      0.12780034    -2.4497459     -682.57869    
     14000   1.4            983.34478      979.54237      3042.9786      1080.3474      304.33042      7.4651045     -2.5772558      0.12710288    -2.4501529     -705.46223    
     14500   1.45           972.34979      967.79802      3021.4661      1068.0796      302.24557      5.6112595     -2.5762266      0.12568172    -2.4505449     -701.7192     
     15000   1.5            955.62177      951.22351      2958.5931      1049.4915      298.53826      5.58875       -2.5745886      0.12351953    -2.4510691     -669.98405    
     15500   1.55           956.70349      952.61034      2947.299       1050.8938      297.3754       6.5598993     -2.575256       0.12365935    -2.4515966     -674.89391    
     16000   1.6            949.41056      947.35984      2923.358       1042.261       299.46324      5.4763386     -2.5746566      0.12271669    -2.4519399     -616.40867    
     16500   1.65           951.00515      949.8972       2914.486       1042.6523      309.48438      6.507018      -2.5750071      0.1229228     -2.4520843     -561.64842    
     17000   1.7            944.57135      942.9727       2896.1715      1036.1431      303.57707      5.8000924     -2.5746279      0.1220912     -2.4525367     -505.36891    
     17500   1.75           945.48963      944.42825      2891.7299      1038.3401      295.54112      5.3803171     -2.5753381      0.12220989    -2.4531282     -477.67479    
     18000   1.8            931.64648      931.3074       2829.4754      1021.5515      302.32011      6.3191899     -2.5738447      0.12042059    -2.4534241     -394.89806    
     18500   1.85           937.05733      936.32074      2853.6528      1028.796       294.89214      6.9605783     -2.5750429      0.12111997    -2.4539229     -368.95695    
     19000   1.9            926.58673      925.78008      2796.5711      1016.4028      297.88194      6.5737401     -2.5741053      0.11976659    -2.4543387     -261.81826    
     19500   1.95           932.59081      933.01701      2807.0933      1023.3028      297.61422      6.0478071     -2.5751419      0.12054265    -2.4545993     -200.4887     
     20000   2              930.39855      929.734        2778.9231      1019.9875      303.28565      5.5438819     -2.5751726      0.12025928    -2.4549133     -127.84766    
     20500   2.05           931.67198      930.11689      2777.3913      1021.9487      299.74287      6.7700363     -2.5757199      0.12042388    -2.455296      -49.213701    
     21000   2.1            926.0036       924.81446      2742.232       1016.0281      295.83932      5.9788617     -2.5753545      0.11969121    -2.4556633      59.845832    
     21500   2.15           932.50657      931.02103      2751.2124      1022.6033      301.83795      5.1327726     -2.5766098      0.12053176    -2.456078       93.39981     
     22000   2.2            929.759        927.46808      2739.2629      1020.6998      293.17888      5.1277138     -2.5766953      0.12017662    -2.4565187      181.05857    
     22500   2.25           933.08192      931.79195      2719.707       1023.6497      299.11492      5.3999654     -2.5774627      0.12060613    -2.4568566      276.02869    
     23000   2.3            922.67132      920.25281      2683.7559      1011.2122      302.89575      5.4739925     -2.5765049      0.1192605     -2.4572445      361.25249    
     23500   2.35           938.22546      936.63819      2719.7352      1028.7211      304.76523      6.8763792     -2.5789073      0.12127096    -2.4576363      310.10135    
     24000   2.4            922.55706      919.64968      2667.6167      1011.249       301.72326      5.1826351     -2.5772446      0.11924573    -2.4579989      377.95205    
     24500   2.45           924.9808       923.52481      2682.0532      1014.2275      300.26304      5.6262229     -2.5779067      0.11955901    -2.4583477      383.898      
     25000   2.5            919.40821      919.30511      2666.5709      1009.0816      291.70085      6.2833356     -2.5776517      0.11883872    -2.458813       402.66024    
     25500   2.55           922.36654      921.07865      2650.5251      1010.726       303.8608       6.3227538     -2.5783686      0.1192211     -2.4591475      413.82087    
     26000   2.6            914.81123      913.35713      2637.598       1002.7373      299.3385       6.0316457     -2.5778284      0.11824453    -2.4595839      423.18948    
     26500   2.65           914.00892      912.61697      2624.3323      1001.5459      301.26052      4.9217538     -2.578094       0.11814083    -2.4599532      403.88037    
     27000   2.7            911.57179      910.81921      2624.3133      999.3536       297.10849      5.1494594     -2.5781733      0.11782582    -2.4603475      411.22147    
     27500   2.75           910.76304      908.95892      2614.9191      997.26233      305.2807       6.1961316     -2.5782704      0.11772128    -2.4605491      376.97947    
     28000   2.8            908.15666      907.00005      2593.0037      993.96155      307.53627      4.7450136     -2.5783168      0.11738439    -2.4609324      317.31529    
     28500   2.85           900.82542      900.2476       2568.4837      986.47989      301.25644      5.7004841     -2.5778978      0.11643679    -2.461461       269.63745    
     29000   2.9            895.89773      894.9809       2545.2898      980.16866      306.0159       5.1240834     -2.5776969      0.11579986    -2.4618971      197.43052    
     29500   2.95           896.97084      896.86811      2549.4099      982.0657       301.31955      4.8059931     -2.5782014      0.11593856    -2.4622628      101.29012    
     30000   3              888.5881       888.70568      2521.1614      972.78878      299.19627      6.6097825     -2.5774944      0.11485505    -2.4626394      57.143979    
     30500   3.05           885.893        885.83326      2493.5049      968.4653       307.90362      5.4928618     -2.5773016      0.11450669    -2.4627949     -7.3326475    
     31000   3.1            884.31619      883.38107      2490.0075      967.3674       302.97265      5.4892388     -2.5774298      0.11430288    -2.4631269     -91.208165    
     31500   3.15           880.28228      880.19939      2478.4089      963.82464      295.49814      5.8331258     -2.5773782      0.11378147    -2.4635967     -153.65845    
     32000   3.2            874.43208      873.35051      2457.7482      956.33492      301.12755      5.9411025     -2.5768723      0.1130253     -2.463847      -189.88313    
     32500   3.25           878.0955       876.95117      2455.8111      960.54495      300.96425      6.2696998     -2.5777597      0.11349882    -2.4642609     -261.8423     
     33000   3.3            879.19403      877.25664      2450.888       960.92728      307.07843      4.8924777     -2.5781131      0.11364081    -2.4644723     -319.31111    
     33500   3.35           874.83958      872.78524      2442.8975      956.75169      301.4703       4.4199565     -2.5779527      0.11307797    -2.4648748     -326.81209    
     34000   3.4            879.64532      878.12982      2450.561       962.20586      301.73655      6.1041114     -2.5789348      0.11369914    -2.4652356     -361.52592    
     34500   3.45           874.9359       873.65718      2438.4985      957.87454      294.37804      4.4716886     -2.5786497      0.11309042    -2.4655592     -353.54117    
     35000   3.5            871.35608      870.19607      2421.5069      953.18731      298.55221      5.7045229     -2.5786542      0.11262771    -2.4660265     -357.58663    
     35500   3.55           866.21282      864.30631      2397.9296      947.03567      300.46896      4.3258313     -2.5781722      0.11196292    -2.4662092     -353.12385    
     36000   3.6            869.63143      866.50292      2405.5043      950.94797      300.43126      4.3518741     -2.579031       0.11240479    -2.4666262     -376.72857    
     36500   3.65           868.57216      866.40391      2399.0643      949.93635      299.03806      5.7769136     -2.5792423      0.11226787    -2.4669744     -348.70759    
     37000   3.7            866.60317      865.20475      2392.9473      947.06468      303.38978      5.6047419     -2.5792584      0.11201337    -2.467245      -292.91556    
     37500   3.75           863.87023      862.3274       2378.2421      945.03054      295.76253      5.17855       -2.5793663      0.11166012    -2.4677062     -257.68644    
     38000   3.8            860.20882      858.71249      2370.7034      940.35424      299.20718      5.1008419     -2.5792087      0.11118686    -2.4680219     -225.2671     
     38500   3.85           860.48035      861.1145       2354.0269      940.08481      303.26698      5.1303575     -2.5795724      0.11122196    -2.4683504     -198.51452    
     39000   3.9            861.65331      861.22728      2353.1744      941.94558      299.6237       6.0371112     -2.5800469      0.11137357    -2.4686733     -162.28113    
     39500   3.95           856.65643      856.3591       2339.2881      936.42216      298.3127       4.6719225     -2.5797663      0.1107277     -2.4690386     -108.8135     
     40000   4              859.43247      859.31947      2332.2964      940.03969      295.19677      4.1761246     -2.5804118      0.11108652    -2.4693253     -89.311413    
     40500   4.05           853.69328      854.19332      2316.2483      934.02266      291.40161      5.364096      -2.5800421      0.11034469    -2.4696974     -30.808362    
     41000   4.1            856.06646      855.32112      2309.5255      935.53871      299.77776      4.3653219     -2.5805424      0.11065144    -2.469891       36.174712    
     41500   4.15           861.44881      859.85804      2321.1734      942.38562      294.90559      4.9250343     -2.5816016      0.11134714    -2.4702545      77.584793    
     42000   4.2            858.39758      856.49165      2310.4411      938.20287      299.7773       4.0545772     -2.5816974      0.11095275    -2.4707447      127.59176    
     42500   4.25           855.09798      853.23375      2294.2462      935.01367      295.70364      4.2422846     -2.5816058      0.11052626    -2.4710795      181.3729     
     43000   4.3            856.41964      854.27562      2295.3679      936.65245      294.80501      5.0183154     -2.5821759      0.11069709    -2.4714788      212.08429    
     43500   4.35           849.75797      846.61024      2262.7317      927.91575      302.6724       5.4495177     -2.5815219      0.10983603    -2.4716858      274.9757     
     44000   4.4            847.85002      845.76879      2249.4452      926.67964      296.05922      4.3384219     -2.5815428      0.10958942    -2.4719534      303.40348    
     44500   4.45           858.01073      856.53752      2287.2051      937.57041      301.11026      4.7814487     -2.5831435      0.11090275    -2.4722408      295.84195    
     45000   4.5            851.20309      848.44318      2253.4772      929.95104      299.98512      5.1813373     -2.5826007      0.11002282    -2.4725778      362.23402    
     45500   4.55           857.23304      855.01852      2274.7935      935.39643      310.11029      5.3210076     -2.5836286      0.11080223    -2.4728264      382.4704     
     46000   4.6            851.00367      849.5133       2242.3395      928.91163      305.66785      4.679302      -2.5831929      0.10999705    -2.4731959      402.42823    
     46500   4.65           850.8085       848.80385      2235.4553      927.83497      311.64559      4.039666      -2.5834534      0.10997182    -2.4734816      380.93037    
     47000   4.7            846.86842      845.11851      2210.9898      924.67765      302.22285      5.1719433     -2.583349       0.10946254    -2.4738865      376.54928    
     47500   4.75           844.00445      842.71634      2202.0444      921.35888      302.54303      4.8386874     -2.5833162      0.10909236    -2.4742238      391.7734     
     48000   4.8            841.50133      839.16002      2192.8819      919.2323       297.40232      3.9404638     -2.5834204      0.10876881    -2.4746516      341.64627    
     48500   4.85           839.53397      838.72194      2179.8206      916.20554      302.85323      3.7995403     -2.5833446      0.10851452    -2.4748301      276.68899    
     49000   4.9            843.29901      842.94092      2189.836       920.27951      304.45589      4.648694      -2.5842117      0.10900117    -2.4752105      223.46484    
     49500   4.95           839.09773      838.39849      2170.4222      915.99683      300.82347      4.2118044     -2.5840643      0.10845814    -2.4756062      215.88035    
     50000   5              838.0028       837.96687      2152.382       914.90048      299.7382       4.8553615     -2.5841641      0.10831661    -2.4758475      160.90502    
     50500   5.05           832.68433      832.9447       2139.3198      907.88972      306.26898      3.9406329     -2.5837586      0.10762917    -2.4761294      107.62668    
     51000   5.1            831.30742      832.30945      2144.0694      907.82826      295.67986      4.2360112     -2.5840965      0.10745119    -2.4766454      69.580897    
     51500   5.15           831.46362      831.98662      2150.5182      907.6505       298.17479      5.3267079     -2.5843749      0.10747138    -2.4769035      54.267621    
     52000   5.2            829.25953      828.10533      2142.1099      905.93523      292.54693      4.1180105     -2.5844328      0.10718649    -2.4772463      14.182296    
     52500   5.25           830.09031      829.12328      2154.055       905.17768      304.50071      4.3335742     -2.5847505      0.10729388    -2.4774566     -42.966572    
     53000   5.3            829.33914      827.70248      2148.6314      905.36177      297.19986      4.705465      -2.5850192      0.10719678    -2.4778224     -60.776498    
     53500   5.35           836.56566      834.93032      2163.3825      913.65188      296.98037      4.8388512     -2.5862793      0.10813085    -2.4781485     -78.992342    
     54000   5.4            830.82477      828.98408      2147.8402      906.82903      298.81457      4.5426403     -2.5858258      0.10738881    -2.478437      -81.201345    
     54500   5.45           827.73901      826.16343      2128.7445      902.86371      301.88728      3.7475467     -2.5856828      0.10698996    -2.4786929     -138.42575    
     55000   5.5            823.75716      822.84997      2117.3327      898.92667      297.59053      4.28103       -2.5855         0.10647528    -2.4790247     -200.30054    
     55500   5.55           820.7227       819.30483      2108.9022      895.48619      297.39853      4.7240731     -2.5854696      0.10608306    -2.4793865     -209.09164    
     56000   5.6            819.33688      818.05505      2095.187       893.11865      302.88714      3.5342372     -2.5854482      0.10590393    -2.4795442     -210.56474    
     56500   5.65           818.5059       817.12014      2101.6971      892.04413      303.76133      3.6574115     -2.5855448      0.10579653    -2.4797482     -229.41965    
     57000   5.7            809.03777      807.84685      2076.5702      881.25501      303.54118      4.5936549     -2.5845673      0.10457272    -2.4799946     -217.19452    
     57500   5.75           812.42927      811.51378      2075.8504      885.47158      301.15585      3.5886574     -2.5853567      0.10501109    -2.4803457     -248.01788    
     58000   5.8            812.2114       810.6406       2062.4285      884.55127      305.85696      4.7114674     -2.5856407      0.10498293    -2.4806578     -219.35856    
     58500   5.85           817.80102      815.52338      2082.6034      890.83949      306.55591      3.6811332     -2.5865848      0.10570542    -2.4808794     -194.08818    
     59000   5.9            811.60322      811.99699      2059.3157      884.81118      299.16957      3.585375      -2.5861415      0.10490431    -2.4812372     -197.72654    
     59500   5.95           808.78711      808.70901      2051.0924      880.63363      305.88648      4.8739741     -2.5860562      0.10454032    -2.4815159     -222.26907    
     60000   6              806.91034      806.32675      2044.5756      878.88787      303.09177      3.7974313     -2.5862186      0.10429773    -2.4819208     -206.77382    
     60500   6.05           806.92383      807.04861      2027.499       878.349        306.97329      3.8930556     -2.5865096      0.10429948    -2.4822101     -150.69164    
     61000   6.1            809.05038      809.36495      2046.4157      880.97837      305.57928      4.7651956     -2.5871323      0.10457435    -2.482558      -110.10912    
Loop time of 469.521 on 6 procs for 60000 steps with 28860 atoms

Performance: 1.104 ns/day, 21.737 hours/ns, 127.790 timesteps/s, 3.688 Matom-step/s
99.0% CPU use with 6 MPI tasks x 1 OpenMP threads

MPI task timing breakdown:
Section |  min time  |  avg time  |  max time  |%varavg| %total
---------------------------------------------------------------
Pair    | 327.09     | 364.58     | 388.93     | 125.5 | 77.65
Neigh   | 0.97576    | 1.1077     | 1.2015     |   9.3 |  0.24
Comm    | 45.28      | 69.784     | 107.39     | 287.6 | 14.86
Output  | 0.016677   | 0.017285   | 0.019319   |   0.7 |  0.00
Modify  | 31.345     | 31.738     | 32.041     |   4.4 |  6.76
Other   |            | 2.299      |            |       |  0.49

Nlocal:           4810 ave        5141 max        4344 min
Histogram: 1 0 0 0 1 1 1 0 1 1
Nghost:           2925 ave        3294 max        2421 min
Histogram: 1 0 1 0 0 0 2 0 1 1
Neighs:         181562 ave      229326 max      117944 min
Histogram: 1 0 1 0 0 1 1 0 0 2

Total # of neighbors = 1089372
Ave neighs/atom = 37.746778
Neighbor list builds = 186
Dangerous builds = 0
System init for write_data ...
Setting up Verlet run ...
  Unit style    : metal
  Current step  : 61000
  Time step     : 0.001
Per MPI rank memory allocation (min/avg/max) = 6.012 | 6.261 | 6.395 Mbytes
   Step          Time           Temp          c_Tnw         c_Ttrack       c_Tinner       c_Tsink        v_ke_max        PotEng         KinEng         TotEng         Press     
     61000   6.1            809.05038      809.36495      2046.4157      880.97837      305.57928      4.7651956     -2.5871323      0.10457435    -2.482558      -110.10912    
     61500   6.6            815.89113      815.104        2023.0448      889.52023      300.50947      3.2966385     -2.5913467      0.10545855    -2.4858882      151.80464    
     62000   7.1            790.72631      788.5207       1895.1525      860.90275      299.51587      3.5361268     -2.5914284      0.10220586    -2.4892225      166.44636    
     62500   7.6            780.85811      780.07856      1875.946       850.02426      296.71977      2.9405518     -2.5931649      0.10093033    -2.4922346     -66.087517    
     63000   8.1            774.58135      773.34648      1838.8075      842.07108      302.18088      2.9563603     -2.5950562      0.10011903    -2.4949372     -154.79915    
     63500   8.6            768.29558      767.26503      1787.3         833.98849      308.47606      2.1810637     -2.5971158      0.099306557   -2.4978093      56.808006    
     64000   9.1            759.20071      758.56094      1749.2554      824.90158      299.32295      1.9679685     -2.5987729      0.098130994   -2.5006419      146.56439    
     64500   9.6            750.31463      749.83717      1702.2751      815.30103      295.43765      1.6410657     -2.6003638      0.096982417   -2.5033814     -87.823411    
     65000   10.1           740.08214      738.18654      1658.9495      803.43941      296.61083      2.1323593     -2.6015434      0.09565981    -2.5058836     -150.50573    
     65500   10.6           741.35887      740.02229      1645.2467      805.23691      294.24105      1.6740512     -2.6042835      0.095824835   -2.5084587      52.399186    
     66000   11.1           732.70589      732.29824      1611.5298      794.69069      298.84357      1.790283      -2.6056797      0.094706388   -2.5109733      91.320689    
     66500   11.6           733.01082      732.63598      1601.124       794.09037      305.48785      1.6552865     -2.6082344      0.094745802   -2.5134886     -87.444668    
     67000   12.1           720.2656       720.1052       1555.1307      779.67806      304.41337      1.549979      -2.6091386      0.09309841    -2.5160402     -108.27377    
     67500   12.6           712.45043      712.62595      1518.0237      771.33393      300.30023      1.6907937     -2.6107785      0.092088255   -2.5186902     -29.346637    
     68000   13.1           711.02115      709.51477      1499.2863      769.33209      302.88001      1.9149476     -2.6127978      0.091903512   -2.5208943     -3.8365959    
     68500   13.6           702.50499      702.15947      1477.411       760.90112      293.76497      1.6321532     -2.6142857      0.09080275    -2.5234829      5.7602559    
     69000   14.1           694.31739      693.91123      1445.0757      750.41631      301.66196      1.8362601     -2.6156759      0.089744457   -2.5259314     -82.707031    
     69500   14.6           691.98665      691.26166      1415.4508      746.48869      310.51314      1.3949796     -2.6175463      0.089443196   -2.5281031     -26.012094    
     70000   15.1           689.20581      689.02187      1405.6615      745.26556      296.82321      1.6153567     -2.6199285      0.089083756   -2.5308447      33.636461    
     70500   15.6           683.35561      682.81663      1381.877       737.16737      306.71351      1.5091328     -2.6213446      0.088327584   -2.533017      -30.552809    
     71000   16.1           677.80345      676.37134      1358.2182      730.62049      308.12568      1.4722223     -2.6227179      0.087609936   -2.535108      -81.487406    
     71500   16.6           667.74546      667.67602      1339.6446      720.73816      296.8348       1.4734339     -2.6240455      0.086309884   -2.5377356     -19.467995    
     72000   17.1           662.97755      663.24098      1316.5375      715.84057      292.97373      1.5643766     -2.6255795      0.085693605   -2.5398858      1.1411087    
     72500   17.6           663.72309      662.72233      1312.1483      717.12122      289.97213      1.6737069     -2.6279404      0.08578997    -2.5421504     -23.012276    
     73000   18.1           659.99709      659.34716      1297.4464      710.99936      303.02283      1.3338737     -2.629463       0.085308364   -2.5441546     -54.175449    
     73500   18.6           661.69488      661.52071      1303.7496      712.73667      304.44424      1.3790638     -2.6317325      0.085527812   -2.5462047     -74.392259    
     74000   19.1           649.45031      648.63348      1263.7152      699.77323      297.23042      1.2812349     -2.6322547      0.083945132   -2.5483096      3.9265693    
     74500   19.6           645.91955      644.85738      1240.5116      695.08139      301.82949      1.2785924     -2.6336975      0.083488762   -2.5502087      11.13321     
     75000   20.1           638.66776      637.44011      1218.9677      686.74165      302.19439      1.3477132     -2.6347125      0.082551427   -2.552161      -19.720328    
     75500   20.6           637.16234      637.21874      1199.6108      685.25562      300.55267      1.2765997     -2.6366662      0.082356843   -2.5543094     -16.606524    
     76000   21.1           632.04969      631.37907      1185.6654      678.95237      303.77616      1.6112497     -2.6377172      0.081696004   -2.5560212      21.242574    
     76500   21.6           629.61473      629.36071      1166.6014      676.12569      304.08364      1.0902809     -2.6394713      0.081381271   -2.55809        75.4125      
     77000   22.1           624.4964       624.97338      1165.6878      670.977        299.17654      1.2581191     -2.6404637      0.080719699   -2.559744      -38.726784    
     77500   22.6           622.70483      621.50628      1169.4188      668.46587      302.42328      1.3267293     -2.6421676      0.080488127   -2.5616795     -14.10915     
     78000   23.1           616.37294      615.21593      1131.4025      661.3489       301.58739      1.3680198     -2.6433282      0.079669695   -2.5636585      20.337435    
     78500   23.6           609.42336      609.23541      1111.8384      654.06923      296.94748      1.1780795     -2.6441756      0.078771423   -2.5654042      23.020641    
     79000   24.1           610.63907      611.50375      1110.7654      654.62807      302.76344      1.1467147     -2.6462026      0.07892856    -2.567274       8.201476     
     79500   24.6           607.79432      607.02504      1092.0657      651.90089      299.09458      1.512656      -2.6475744      0.07856086    -2.5690135      27.539154    
     80000   25.1           602.19196      600.21697      1068.8338      644.78067      304.11989      1.2955468     -2.6485522      0.077836723   -2.5707155      40.996137    
     80500   25.6           601.48744      601.25095      1080.2988      644.52429      300.27698      1.1260091     -2.650159       0.07774566    -2.5724133      42.929988    
     81000   26.1           597.41785      597.45818      1053.2884      639.26752      304.51972      1.2480089     -2.6512211      0.077219642   -2.5740014     -35.853984    
     81500   26.6           586.63838      586.10449      1025.3207      627.24059      302.47302      1.1540043     -2.6514526      0.075826335   -2.5756263      51.715346    
     82000   27.1           588.94922      588.7679       1030.9876      629.35783      306.14026      1.1805415     -2.6533822      0.076125024   -2.5772572      115.07085    
     82500   27.6           583.7159       583.69292      1016.7412      623.88277      302.59828      1.162635      -2.6544172      0.075448587   -2.5789686      41.004668    
     83000   28.1           581.41194      581.37556      1008.4534      620.79644      305.77247      1.0347535     -2.6554648      0.075150788   -2.580314      -58.776576    
     83500   28.6           584.51323      584.10976      1014.2727      624.77163      302.7549       1.210858      -2.6574307      0.075551647   -2.5818791      11.642235    
     84000   29.1           572.75162      572.88986      977.26771      611.86976      298.97501      1.0543279     -2.6575703      0.074031393   -2.5835389      21.404422    
     84500   29.6           573.86666      573.80312      978.67836      612.18915      305.66203      1.1448731     -2.6592186      0.074175517   -2.585043       28.82355     
     85000   30.1           566.58305      566.07778      955.36522      604.21638      303.20251      1.4403547     -2.6598637      0.07323407    -2.5866296     -47.331406    
     85500   30.6           559.66523      559.74553      930.50345      595.73775      307.21274      1.265349      -2.6604101      0.072339902   -2.5880702     -8.3139658    
     86000   31.1           560.16022      559.24661      936.36101      596.73058      304.22161      1.1706979     -2.6619387      0.072403883   -2.5895348      9.7363322    
     86500   31.6           554.65321      554.00641      919.18539      589.99669      307.30464      1.3328864     -2.6628321      0.07169207    -2.59114       -16.927766    
     87000   32.1           552.39915      551.82625      910.94854      588.75085      297.98958      1.3030134     -2.6642347      0.07140072    -2.5928339      15.863037    
     87500   32.6           545.98402      545.95158      902.11784      581.96906      294.14033      1.0032765     -2.6649647      0.070571528   -2.5943931      16.912995    
     88000   33.1           540.42995      540.38736      875.29549      574.85714      299.49399      1.2935121     -2.6657522      0.069853633   -2.5958986     -22.99105     
     88500   33.6           541.15668      540.54411      884.26539      575.65042      299.75488      1.0432306     -2.667199       0.069947567   -2.5972514      9.4278585    
     89000   34.1           537.03789      537.05799      878.05978      570.73768      301.19482      1.001435      -2.6679777      0.06941519    -2.5985625      14.971587    
     89500   34.6           539.4164       539.06748      868.65943      573.85222      298.41977      1.0438664     -2.6697419      0.069722626   -2.6000193      19.600327    
     90000   35.1           530.26718      529.91744      852.10748      562.22332      306.63265      1.0438459     -2.6697482      0.068540038   -2.6012082     -0.93385455   
     90500   35.6           525.04133      524.54324      833.89058      557.43278      298.35694      0.78853338    -2.6702791      0.067864567   -2.6024145     -28.955286    
     91000   36.1           526.28785      526.18486      830.26227      558.32503      302.0847       0.91436259    -2.6716034      0.068025686   -2.6035778      24.306273    
     91500   36.6           521.34391      521.2201       819.96401      553.00875      299.74684      0.96755675    -2.672192       0.067386655   -2.6048053      49.01244     
     92000   37.1           518.53014      517.91658      812.08485      549.822        299.54409      0.89015311    -2.6730642      0.067022958   -2.6060412     -56.684413    
     92500   37.6           517.65958      517.73042      811.80957      548.69062      300.49976      0.95534696    -2.674132       0.066910433   -2.6072216     -14.369622    
     93000   38.1           514.10036      514.13656      793.38845      544.05082      304.50665      0.86772393    -2.6746178      0.066450384   -2.6081674      13.082129    
     93500   38.6           508.98897      508.88265      783.20027      538.74451      300.75879      0.85051395    -2.6750816      0.065789708   -2.6092919      20.293352    
     94000   39.1           506.26347      506.17227      783.34268      536.54987      294.31506      1.2633729     -2.676188       0.065437422   -2.6107506     -34.265811    
     94500   39.6           504.69847      504.14742      773.29788      532.68645      308.84496      1.0732514     -2.6769133      0.065235137   -2.6116782     -22.135823    
     95000   40.1           501.46143      501.09928      761.6719       530.15999      300.63101      0.8492933     -2.6776809      0.064816732   -2.6128641      10.85381     
     95500   40.6           499.62279      498.86001      759.09864      527.47842      304.69467      0.75767019    -2.6782584      0.064579076   -2.6136793      1.5270012    
     96000   41.1           495.56256      495.44621      734.71312      522.5937       306.40705      0.84978922    -2.6789674      0.064054269   -2.6149132     -13.104018    
     96500   41.6           497.97605      497.02563      744.81255      525.09365      308.21574      0.99625808    -2.6802712      0.064366226   -2.6159049     -10.279855    
     97000   42.1           493.50059      493.12373      741.84572      521.54948      297.21746      0.99277777    -2.6809821      0.063787748   -2.6171944     -16.15738     
     97500   42.6           490.93638      490.87417      728.0675       518.04748      301.21962      0.76263153    -2.6814972      0.063456309   -2.6180409      17.852892    
     98000   43.1           486.85696      487.03933      714.61015      514.26357      295.06972      0.72143727    -2.6819469      0.062929021   -2.6190178      18.802607    
     98500   43.6           485.11881      484.81033      707.74136      510.52154      307.36375      0.90079086    -2.6825917      0.062704355   -2.6198874      7.0738897    
     99000   44.1           480.86132      480.08285      704.07662      506.62381      300.58586      0.70093804    -2.6829576      0.062154051   -2.6208035     -52.067961    
     99500   44.6           480.41027      480.90402      704.33902      506.24464      299.63125      0.69631394    -2.6840135      0.06209575    -2.6219178      5.6639265    
    100000   45.1           477.08238      476.33617      689.71495      501.15601      308.63253      0.70170933    -2.6842326      0.061665601   -2.622567       37.217895    
    100500   45.6           473.39598      473.69614      685.37416      498.24634      299.50581      0.64954139    -2.6848322      0.061189112   -2.6236431     -1.0454475    
    101000   46.1           471.77931      471.56549      677.34216      496.5349       298.55235      0.85793213    -2.685307       0.060980148   -2.6243269     -5.2107857    
    101500   46.6           467.69356      467.43484      665.23431      491.13985      303.63422      0.59565316    -2.6857169      0.060452043   -2.6252648      20.113946    
    102000   47.1           466.8216       466.47346      654.51967      489.48535      308.24193      0.85529567    -2.6864503      0.060339336   -2.6261109      33.171365    
    102500   47.6           462.33061      462.16947      652.06747      485.42604      300.72678      0.66044434    -2.6868043      0.059758851   -2.6270454      24.776       
    103000   48.1           463.12872      463.22596      654.20177      486.11515      302.28836      0.66442998    -2.6877917      0.059862011   -2.6279297     -32.518039    
    103500   48.6           459.67859      459.03502      647.62735      482.71615      298.47932      0.83536366    -2.6882516      0.059416063   -2.6288355     -15.834644    
    104000   49.1           456.90485      457.20186      639.5304       479.20026      300.90183      0.75754358    -2.6885295      0.059057541   -2.629472      -31.120648    
    104500   49.6           453.89         453.69025      630.67374      476.19587      297.8129       0.61165974    -2.6888201      0.058667854   -2.6301522      27.510424    
    105000   50.1           453.42387      452.39128      630.11129      474.4957       305.98837      0.65297498    -2.6895001      0.058607605   -2.6308925      16.626554    
    105500   50.6           452.59268      452.44467      618.45466      474.05983      302.38864      0.56973047    -2.6900708      0.058500168   -2.6315706     -9.925793     
    106000   51.1           443.53075      443.59191      612.00846      465.28289      291.32845      0.65941156    -2.6898841      0.057328863   -2.6325552      22.97708     
    106500   51.6           448.24065      447.83661      623.49143      469.68063      298.22561      0.93699684    -2.6912442      0.057937644   -2.6333066     -3.7651156    
    107000   52.1           443.23016      442.91829      616.76103      463.6537       300.33163      0.67952089    -2.6911948      0.057290009   -2.6339048      20.936551    
    107500   52.6           439.51749      439.63591      606.60055      459.69748      298.32346      0.70195519    -2.6915388      0.056810126   -2.6347287      6.0106947    
    108000   53.1           438.27251      438.08003      596.23719      457.8557       301.25744      0.7328504     -2.6919361      0.056649205   -2.6352869      17.020959    
    108500   53.6           436.92461      436.84696      588.10926      455.17986      309.2084       0.68709561    -2.6921277      0.056474981   -2.6356527      38.001616    
    109000   54.1           436.36632      436.20681      586.27924      456.438        295.92992      0.89526153    -2.6928737      0.056402819   -2.6364708      14.415524    
    109500   54.6           433.87525      433.4673       581.42658      452.06956      306.58495      0.53338942    -2.6932418      0.056080835   -2.6371609     -16.927158    
    110000   55.1           429.3918       429.27112      574.05621      446.64774      308.67146      0.6925827     -2.6931626      0.055501323   -2.6376613     -21.09812     
    110500   55.6           427.31507      426.96009      569.83696      446.78298      291.10422      0.81179077    -2.6937371      0.055232894   -2.6385042      42.692424    
    111000   56.1           428.16951      427.92595      564.01257      445.79915      304.83189      0.82064631    -2.6941655      0.055343335   -2.6388221      32.573646    
    111500   56.6           427.57573      428.14215      565.37519      445.08524      305.07914      0.57039026    -2.6946132      0.055266585   -2.6393467      12.257672    
    112000   57.1           424.21415      424.10916      569.0654       441.04457      306.47221      0.55310337    -2.6946619      0.054832083   -2.6398298     -15.329751    
    112500   57.6           423.74245      423.48101      565.69069      440.96052      303.28576      0.70237652    -2.6949613      0.054771113   -2.6401902     -5.6698533    
    113000   58.1           422.04878      421.8191       558.88012      439.96567      296.69785      0.56042796    -2.6953924      0.054552196   -2.6408402      6.5592117    
    113500   58.6           420.49825      420.91926      556.29889      437.19006      303.72587      0.49073218    -2.6955382      0.054351781   -2.6411864     -0.41470984   
    114000   59.1           419.40611      419.42876      549.81255      435.23862      308.65096      0.7480234     -2.6961407      0.054210616   -2.6419301     -8.5920018    
    114500   59.6           417.37425      417.6355       541.77232      434.08382      300.47663      0.58140447    -2.6964162      0.053947987   -2.6424682      40.605631    
    115000   60.1           416.01735      416.03183      541.13972      432.37168      301.60708      0.62988457    -2.6965997      0.0537726     -2.6428271     -1.8032892    
    115500   60.6           412.6544       412.72754      537.43394      429.30072      296.19842      0.51785513    -2.6967555      0.05333792    -2.6434176     -33.212716    
    116000   61.1           416.51202      416.51309      535.69261      432.73837      302.99803      0.54418918    -2.6974081      0.053836538   -2.6435716      0.66619052   
    116500   61.6           412.46415      412.41809      530.9982       428.25361      302.00849      0.50360931    -2.6974284      0.053313328   -2.6441151      11.120263    
    117000   62.1           410.61379      410.47809      527.24065      426.65554      298.39096      0.64903287    -2.6977198      0.053074159   -2.6446456     -4.7671369    
    117500   62.6           408.8697       408.89133      515.4384       425.47271      292.71599      0.57244914    -2.6979339      0.052848726   -2.6450852     -21.248151    
    118000   63.1           407.66666      407.60193      509.94014      422.08979      306.77781      0.51234936    -2.6979385      0.052693226   -2.6452453      0.45488206   
    118500   63.6           404.67853      404.23025      503.69743      419.79662      298.92221      0.49588809    -2.6980323      0.052306993   -2.6457253      24.694436    
    119000   64.1           409.17574      409.51372      513.04348      424.05744      305.07609      0.52765329    -2.6989156      0.052888283   -2.6460274     -12.072737    
    119500   64.6           404.55295      404.63981      511.02124      420.01813      296.36599      0.59543487    -2.6989345      0.052290761   -2.6466437     -15.121939    
    120000   65.1           403.90049      403.92623      506.30028      418.05048      304.9233       0.43195874    -2.6991542      0.052206426   -2.6469478     -12.175105    
    120500   65.6           398.90257      398.02216      497.60481      412.57058      303.29922      0.52859582    -2.6988702      0.051560418   -2.6473098     -7.0710347    
    121000   66.1           399.30763      399.00064      492.16182      413.22776      301.93887      0.52736797    -2.6992808      0.051612774   -2.647668       45.110943    
    121500   66.6           401.28249      401.02927      498.51053      415.58842      301.2126       0.51367129    -2.6999388      0.051868036   -2.6480707     -3.7242868    
    122000   67.1           397.76535      397.12729      497.17691      412.81786      292.46636      0.48603311    -2.6998264      0.051413426   -2.648413      -42.12203     
    122500   67.6           396.4049       396.26202      487.10051      409.83518      302.4656       0.48437338    -2.6998162      0.051237579   -2.6485786     -18.497045    
    123000   68.1           395.14296      394.92346      493.86686      409.48337      294.82991      0.47608144    -2.7000459      0.051074466   -2.6489714      20.558128    
    123500   68.6           395.7659       395.56874      490.73812      410.6202       291.85429      0.56624272    -2.7006489      0.051154984   -2.6494939      9.5895394    
    124000   69.1           394.18993      393.63514      489.02759      407.45399      301.41405      0.48320007    -2.7006309      0.050951282   -2.6496796     -3.9624474    
    124500   69.6           393.68202      393.92843      490.27081      407.22891      298.92545      0.46289957    -2.700876       0.050885632   -2.6499904     -0.64859856   
    125000   70.1           393.3442       393.3591       487.16944      406.86418      298.77589      0.55841428    -2.7009154      0.050841966   -2.6500734      5.1971968    
    125500   70.6           390.70681      389.94133      477.41035      403.82505      298.95114      0.49089143    -2.7011974      0.050501069   -2.6506963      2.7149285    
    126000   71.1           392.50703      392.22735      482.07666      405.03239      304.90361      0.57745739    -2.7014988      0.050733757   -2.650765      -11.285651    
    126500   71.6           391.78399      391.71415      486.7089       404.81773      300.62031      0.48039889    -2.7017191      0.0506403     -2.6510788      25.218741    
    127000   72.1           387.45255      387.57852      473.85807      399.49596      303.22273      0.51335283    -2.7016994      0.050080438   -2.651619       21.34781     
    127500   72.6           389.39763      388.95826      471.36208      401.85821      302.24695      0.40292505    -2.7022281      0.05033185    -2.6518963      50.646013    
    128000   73.1           388.65782      388.25415      468.78291      401.72244      297.27703      0.52665185    -2.7023115      0.050236225   -2.6520753     -0.43217314   
    128500   73.6           385.93267      385.46803      470.01228      398.46269      298.29481      0.47237425    -2.7023744      0.049883985   -2.6524904     -24.017968    
    129000   74.1           385.3268       384.97368      468.45067      397.71282      298.69721      0.58274879    -2.7026014      0.049805672   -2.6527957      14.580152    
    129500   74.6           383.19921      383.15836      458.39806      396.02168      293.5126       0.48569935    -2.7026775      0.049530669   -2.6531468      38.940321    
    130000   75.1           385.54879      385.62619      460.93124      397.17242      304.25813      0.4678391     -2.7031106      0.049834366   -2.6532762      20.905173    
    130500   75.6           383.44875      383.16221      466.12765      394.70357      304.7401       0.61991051    -2.7030165      0.049562923   -2.6534535     -1.6307989    
    131000   76.1           376.13274      376.25382      456.40825      388.80561      287.49183      0.44649001    -2.7024809      0.048617288   -2.6538636      28.637717    
    131500   76.6           381.37605      381.72701      459.58043      393.5659       296.11907      0.52435547    -2.7032379      0.049295016   -2.6539429      20.015691    
    132000   77.1           379.37948      379.30517      455.86736      391.25135      296.34873      0.48472613    -2.7031612      0.049036948   -2.6541243      21.54901     
    132500   77.6           379.01796      378.84599      454.75329      389.73896      304.04628      0.47254938    -2.7033845      0.048990218   -2.6543942      32.982661    
    133000   78.1           378.92538      378.95759      454.5533       390.65742      296.87366      0.47358629    -2.703601       0.048978252   -2.6546227      31.216586    
    133500   78.6           379.31311      379.12858      451.75436      390.30186      302.46656      0.46910788    -2.7037093      0.049028368   -2.6546809     -2.3604515    
    134000   79.1           377.60607      377.29731      452.55855      389.54066      294.13552      0.47492583    -2.7037571      0.048807724   -2.6549494      12.737725    
    134500   79.6           376.598        376.71213      447.7651       387.46069      300.63344      0.46497305    -2.7036896      0.048677425   -2.6550122      22.217659    
    135000   80.1           376.65505      376.55032      447.64346      387.99632      297.33909      0.5130937     -2.7039781      0.048684799   -2.6552933      32.838279    
    135500   80.6           379.96945      379.87221      458.50108      391.21383      301.33298      0.50389556    -2.7044646      0.049113204   -2.6553514     -35.984613    
    136000   81.1           378.07605      378.03429      446.92326      388.0841       308.09683      0.60764344    -2.7044078      0.048868472   -2.6555393      13.348351    
    136500   81.6           377.55306      376.8978       447.82531      388.11964      303.66237      0.3762545     -2.704631       0.048800872   -2.6558302      19.821426    
    137000   82.1           376.2411       376.18663      445.08684      386.26789      306.13009      0.43165872    -2.7045167      0.048631294   -2.6558854     -38.636288    
    137500   82.6           374.9949       374.8584       446.41207      385.80592      299.39173      0.54464863    -2.7047418      0.048470215   -2.6562716     -5.3767421    
    138000   83.1           376.22273      376.21069      446.83733      387.30918      298.69118      0.40120479    -2.7050071      0.048628919   -2.6563782      16.442356    
    138500   83.6           374.60851      374.20899      448.61288      384.95896      302.2306       0.46625536    -2.7050879      0.048420273   -2.6566677     -12.756167    
    139000   84.1           374.32551      374.57614      440.95608      384.495        303.21468      0.49900624    -2.7050107      0.048383693   -2.656627      -0.60235829   
    139500   84.6           375.27723      375.60329      444.34496      386.67359      295.57516      0.41119341    -2.7054423      0.048506708   -2.6569356     -28.54001     
    140000   85.1           372.85751      372.37358      437.39303      382.66745      304.26413      0.41514918    -2.7051277      0.048193946   -2.6569338     -27.04107     
    140500   85.6           370.27903      370.13851      429.00337      381.55714      291.40367      0.39023967    -2.7052261      0.047860663   -2.6573654     -9.6431479    
    141000   86.1           371.81795      371.91012      430.28826      381.70488      302.68517      0.42411193    -2.705563       0.048059577   -2.6575035     -18.646089    
    141500   86.6           371.27356      371.16873      435.33016      381.19577      301.89358      0.54770288    -2.7055999      0.047989212   -2.6576107     -15.931679    
    142000   87.1           370.00481      369.9873       430.10349      379.35552      304.62651      0.46745144    -2.7056092      0.047825218   -2.657784       21.036008    
    142500   87.6           366.58348      366.50237      420.93286      376.28258      298.76459      0.40783326    -2.705415       0.047382992   -2.658032       10.519365    
    143000   88.1           368.06761      367.95802      425.63886      377.21011      304.14678      0.40170057    -2.7058424      0.047574824   -2.6582676     -30.807925    
    143500   88.6           369.76726      369.94943      426.11021      379.44996      302.06403      0.40069515    -2.7060013      0.047794514   -2.6582068     -27.878015    
    144000   89.1           365.30524      364.97014      419.81203      375.67548      292.78618      0.39954621    -2.7057333      0.047217773   -2.6585155      20.502649    
    144500   89.6           366.46647      366.05117      421.98426      376.44713      296.67576      0.39089061    -2.7057731      0.047367867   -2.6584052      55.012914    
    145000   90.1           368.89449      368.80843      422.25326      378.19271      303.88349      0.46557465    -2.7062866      0.047681703   -2.6586049     -19.999507    
    145500   90.6           368.54072      368.41244      422.09054      377.76086      304.07632      0.4268125     -2.7062834      0.047635976   -2.6586474     -29.335545    
    146000   91.1           367.70785      368.15935      422.63033      376.21442      308.24027      0.38618628    -2.7061706      0.047528323   -2.6586423      10.649966    
    146500   91.6           368.02664      368.0479       422.27742      377.91853      298.85804      0.51074958    -2.7065755      0.047569528   -2.659006       36.203736    
    147000   92.1           367.29182      367.62625      422.37346      376.53292      302.68036      0.354535      -2.7064305      0.047474549   -2.6589559     -12.305119    
    147500   92.6           361.86976      361.63914      413.23072      371.27968      296.07454      0.50619253    -2.7060548      0.046773716   -2.6592811      1.5154647    
    148000   93.1           364.75529      364.38155      417.99494      373.94416      300.50886      0.32877171    -2.7063914      0.047146688   -2.6592447     -10.594381    
    148500   93.6           365.4133       365.21632      415.55386      373.97808      305.53742      0.44405882    -2.7065617      0.047231739   -2.65933        46.257271    
    149000   94.1           367.04497      367.0292       422.32352      376.45954      301.21871      0.42665591    -2.7069396      0.047442642   -2.659497      -4.6357028    
    149500   94.6           366.99909      367.13055      422.15392      376.74784      298.8326       0.44023064    -2.7070921      0.047436712   -2.6596554     -58.052617    
    150000   95.1           366.03892      366.35919      423.52824      375.60923      299.12173      0.42501491    -2.7070414      0.047312604   -2.6597288     -21.375694    
    150500   95.6           364.06416      363.96781      411.93128      373.71527      296.58059      0.42191286    -2.707043       0.047057355   -2.6599856      20.835306    
    151000   96.1           363.76394      363.37403      413.60788      372.68022      301.42611      0.38666       -2.7068712      0.04701855    -2.6598526      4.2919508    
    151500   96.6           363.41861      363.79897      412.68371      372.12041      302.58266      0.52879627    -2.7070413      0.046973915   -2.6600674     -44.102843    
    152000   97.1           361.41899      361.50923      411.15602      370.01582      301.31758      0.37234344    -2.7070222      0.046715452   -2.6603067     -15.971129    
    152500   97.6           363.08795      363.20754      406.76849      371.42542      304.80323      0.4806979     -2.707112       0.046931175   -2.6601809      27.337293    
    153000   98.1           362.66737      362.69345      407.20835      371.73528      299.26744      0.38918898    -2.7070574      0.046876812   -2.6601806      22.954525    
    153500   98.6           362.16089      362.34036      409.16988      370.32603      305.08264      0.4330698     -2.707074       0.046811347   -2.6602626     -2.7544434    
    154000   99.1           361.50551      361.05923      410.02993      369.42806      306.12592      0.4092953     -2.7070276      0.046726635   -2.660301      -12.343602    
    154500   99.6           361.27998      361.24892      407.2588       370.54854      296.47451      0.44821879    -2.707284       0.046697484   -2.6605865      0.76335497   
    155000   100.1          361.0074       361.4129       405.13855      369.01083      305.06131      0.38948717    -2.7071283      0.046662253   -2.660466       7.6068974    
    155500   100.6          360.61404      360.6909       408.97599      369.83268      296.15801      0.46999559    -2.7074911      0.046611408   -2.6608796     -43.095921    
    156000   101.1          361.80881      362.13203      405.59514      370.94251      297.94798      0.43516774    -2.7076267      0.046765839   -2.6608609     -10.244067    
    156500   101.6          360.13022      360.20801      395.10676      368.83856      299.24757      0.34672396    -2.7074851      0.046548872   -2.6609362      22.378191    
    157000   102.1          359.69635      359.64454      403.89154      367.98588      301.74641      0.43908088    -2.7074326      0.046492792   -2.6609398      1.9307265    
    157500   102.6          359.57647      359.62234      406.26474      368.627        296.29738      0.40402067    -2.7078497      0.046477296   -2.6613724     -21.024352    
    158000   103.1          358.36258      358.19992      400.0723       365.57661      307.94374      0.44063827    -2.7075566      0.046320394   -2.6612362      7.9274147    
    158500   103.6          358.94381      358.6722       398.9529       367.4297       299.61857      0.37865304    -2.7076453      0.046395521   -2.6612497      11.730102    
    159000   104.1          358.53145      358.49603      401.21139      367.52577      295.64567      0.40133403    -2.707737       0.046342222   -2.6613948     -6.1266791    
    159500   104.6          359.0867       358.80816      397.64014      366.75842      305.46296      0.33647458    -2.7077501      0.046413991   -2.6613361     -25.320227    
    160000   105.1          358.54992      358.28406      398.64288      366.19067      305.14293      0.34119378    -2.7076891      0.046344609   -2.6613445      6.238347     
    160500   105.6          360.53412      360.59728      397.22099      368.06962      307.86468      0.50624579    -2.7080034      0.046601078   -2.6614023      16.247048    
    161000   106.1          356.45931      356.102        399.82496      364.55514      299.86489      0.36780533    -2.7078568      0.046074385   -2.6617824      11.673762    
    161500   106.6          357.77755      357.68391      399.22145      366.4582       297.08812      0.45066682    -2.7081591      0.046244776   -2.6619143      5.1775065    
    162000   107.1          356.54636      356.66312      393.11867      365.72819      292.34698      0.39565809    -2.7080714      0.046085638   -2.6619858      11.238799    
    162500   107.6          357.27839      357.10033      396.07677      366.69555      291.43128      0.45411095    -2.7082969      0.046180257   -2.6621166     -28.230263    
    163000   108.1          357.0889       357.27291      394.36112      365.30483      299.65365      0.38844877    -2.7083448      0.046155764   -2.662189       24.989848    
    163500   108.6          356.25257      356.29395      394.52184      365.77773      289.64887      0.34957306    -2.7084527      0.046047664   -2.662405       5.8015538    
    164000   109.1          357.0669       357.03324      401.34145      365.67548      296.88196      0.36844674    -2.7084307      0.04615292    -2.6622777      5.9181423    
[...]
    318500   263.6          299.65358      299.29134      299.41414      299.51663      300.69572      0.31279327    -2.7186151      0.038731924   -2.6798832      18.874107    
    319000   264.1          300.87547      300.84213      301.24363      300.95107      300.4295       0.30121931    -2.7186763      0.03888986    -2.6797865      0.78910006   
    319500   264.6          300.83154      300.9657       299.41417      300.98845      299.81615      0.30938172    -2.7184625      0.038884181   -2.6795783     -1.083703     
    320000   265.1          299.20194      298.95627      301.19073      298.47862      304.35018      0.35884265    -2.7183733      0.038673546   -2.6796997      3.9274016    
    320500   265.6          299.39216      299.23396      300.05448      299.71795      297.19372      0.3454076     -2.7188169      0.038698132   -2.6801187      30.489372    
    321000   266.1          299.74899      299.63163      298.60863      299.70257      300.15718      0.34841237    -2.7185413      0.038744256   -2.6797971      6.0373626    
    321500   266.6          299.49577      299.46969      299.68883      298.70451      305.11986      0.30101225    -2.7187365      0.038711525   -2.680025      -26.849536    
    322000   267.1          299.44859      299.33004      299.03916      299.13206      301.74824      0.2733015     -2.7188602      0.038705427   -2.6801548     -0.28064259   
    322500   267.6          298.98383      298.8396       297.03055      299.51892      295.31958      0.29290694    -2.718716       0.038645354   -2.6800706      22.448277    
    323000   268.1          300.82593      301.01297      301.47882      301.07472      299.16718      0.33476672    -2.7186936      0.038883456   -2.6798101     -4.7510429    
    323500   268.6          297.99157      297.88628      295.7678       297.57052      301.02272      0.30179278    -2.7184892      0.038517099   -2.6799721      0.24846089   
    324000   269.1          299.20959      299.52039      298.9955       299.10861      299.99968      0.29831461    -2.7185356      0.038674534   -2.6798611      15.563442    
    324500   269.6          299.48806      299.57463      297.30749      299.30375      300.86176      0.31949201    -2.7185517      0.038710529   -2.6798412     -2.9760686    
    325000   270.1          300.61057      300.68246      303.74719      300.50976      301.39986      0.28460938    -2.7187805      0.038855619   -2.6799249     -8.1206478    
    325500   270.6          299.05557      299.16446      297.13165      299.68072      294.76069      0.32023048    -2.7184909      0.038654627   -2.6798363     -18.944942    
    326000   271.1          301.4134       301.52906      298.99079      301.24784      302.65639      0.30330553    -2.7188893      0.03895939    -2.6799299      56.928208    
    326500   271.6          300.05569      300.25402      304.11544      300.07983      299.96992      0.31068685    -2.7184303      0.038783899   -2.6796464      14.19313     
    327000   272.1          297.3063       297.43751      298.32411      297.78278      294.0521       0.33936405    -2.7183758      0.038428524   -2.6799472     -5.879066     
    327500   272.6          299.57477      299.6077       297.96359      300.13527      295.73279      0.37792972    -2.7182929      0.038721737   -2.6795712      33.714154    
    328000   273.1          301.04285      301.05328      298.85167      301.35221      298.95996      0.29228798    -2.7185632      0.038911495   -2.6796517     -0.31125672   
    328500   273.6          299.77604      299.56096      300.02274      299.92745      298.79891      0.30129544    -2.7185024      0.038747752   -2.6797546      34.56339     
    329000   274.1          301.81354      301.74644      298.1653       301.53234      303.86636      0.29189899    -2.7185442      0.03901111    -2.6795331      5.5839117    
    329500   274.6          300.37675      300.44236      297.65887      300.1128       302.30843      0.3237194     -2.7185866      0.038825397   -2.6797612     -25.053633    
    330000   275.1          302.33942      302.42145      306.19199      302.52576      301.11834      0.32173992    -2.7185751      0.039079083   -2.6794961     -8.1118626    
    330500   275.6          298.45383      298.32339      297.59165      298.46931      298.42824      0.3372177     -2.7180341      0.038576849   -2.6794572     -26.357761    
    331000   276.1          299.10771      299.01773      298.94707      298.781        301.47855      0.27183279    -2.7182348      0.038661367   -2.6795734     -6.1986512    
    331500   276.6          300.29227      300.68684      299.91105      300.57774      298.37644      0.31456847    -2.7186664      0.038814477   -2.6798519     -7.1638414    
    332000   277.1          299.28168      299.06323      300.87004      299.11067      300.56218      0.32113036    -2.7187138      0.038683852   -2.6800299      36.752976    
    332500   277.6          300.10061      300.23421      301.77276      300.63272      296.45754      0.31922843    -2.7184675      0.038789704   -2.6796778      34.082527    
    333000   278.1          300.26277      299.89364      300.81786      300.26023      300.36386      0.29713111    -2.7182962      0.038810665   -2.6794855     -11.593614    
    333500   278.6          300.57355      300.57633      300.78247      301.09602      296.9982       0.29049817    -2.7182434      0.038850835   -2.6793926      22.0396      
    334000   279.1          301.5095       301.24845      304.66241      301.20143      303.75044      0.29180643    -2.7181368      0.038971811   -2.679165       28.314166    
    334500   279.6          302.16554      302.27359      303.48703      301.8403       304.52691      0.27771525    -2.7182558      0.039056608   -2.6791992     -16.483598    
    335000   280.1          304.58999      304.59394      303.36529      304.31585      306.5942       0.28730465    -2.71859        0.039369982   -2.6792201     -23.173901    
    335500   280.6          301.13735      301.03079      298.73634      300.6038       304.95716      0.41674573    -2.7182536      0.038923708   -2.6793298      3.3004396    
    336000   281.1          299.35899      299.0852       303.35629      299.2094       300.48957      0.30919863    -2.718448       0.038693846   -2.6797541      0.056108742  
    336500   281.6          299.5563       299.67431      303.78948      299.93488      296.98827      0.31199603    -2.7184644      0.038719349   -2.6797451      16.713869    
    337000   282.1          297.95583      298.05655      304.63024      299.16609      289.56328      0.2984842     -2.7186355      0.038512479   -2.680123       29.549795    
    337500   282.6          300.27256      300.43163      303.64165      300.33539      299.91581      0.32927549    -2.7187078      0.038811929   -2.6798959      6.7768821    
    338000   283.1          301.27241      301.5576       301.67671      300.8545       304.28246      0.26897465    -2.7187711      0.038941166   -2.6798299      27.331648    
    338500   283.6          298.79652      298.52242      299.32029      298.42192      301.50262      0.31634783    -2.7183884      0.038621144   -2.6797673      10.178529    
    339000   284.1          300.01058      300.09004      300.55686      299.90076      300.86282      0.34532171    -2.7184608      0.038778068   -2.6796827      24.311784    
    339500   284.6          299.43302      299.18156      306.77195      300.22683      293.95722      0.28344607    -2.7184252      0.038703415   -2.6797218      12.722544    
    340000   285.1          303.30754      303.75286      306.78961      304.1821       297.2673       0.40578678    -2.7185872      0.039204218   -2.679383      -24.304393    
    340500   285.6          298.97439      298.76015      298.55227      299.08899      298.25473      0.28408932    -2.7187425      0.038644134   -2.6800984     -6.4550671    
    341000   286.1          298.36201      298.36659      299.72006      298.51313      297.38652      0.2618181     -2.7184163      0.038564981   -2.6798513      22.639976    
    341500   286.6          300.09905      300.04632      300.8625       300.93537      294.32569      0.28629272    -2.7183841      0.038789502   -2.6795946      52.825145    
    342000   287.1          299.20692      299.28587      296.29713      299.41273      297.84868      0.32156578    -2.7183739      0.03867419    -2.6796998      39.352547    
    342500   287.6          297.68039      297.86505      297.51211      297.51308      298.93463      0.31466752    -2.7182217      0.038476877   -2.6797449      0.63143736   
    343000   288.1          300.20147      300.10238      303.28211      300.94982      295.04418      0.29283807    -2.7184802      0.038802741   -2.6796774     -21.023147    
    343500   288.6          300.8329       300.55425      299.12766      301.79775      294.15971      0.2848753     -2.7185993      0.038884357   -2.6797149      18.022363    
    344000   289.1          299.637        300.04966      299.9302       299.14417      303.17125      0.29083769    -2.7182266      0.03872978    -2.6794968     -18.694089    
    344500   289.6          300.13649      299.95708      300.95295      300.78042      295.71039      0.34097078    -2.7186274      0.038794342   -2.679833       0.5704787    
    345000   290.1          299.39007      299.46323      300.35145      299.88227      296.02634      0.32590107    -2.7185685      0.038697863   -2.6798707      27.763083    
    345500   290.6          300.10127      299.93178      298.09391      299.39402      305.13717      0.33151323    -2.7187145      0.038789789   -2.6799247      41.233068    
    346000   291.1          301.99152      301.95842      301.87299      302.26097      300.18835      0.35957798    -2.7188106      0.039034115   -2.6797765     -14.424735    
    346500   291.6          299.46464      299.3756       299.73784      299.94428      296.18888      0.35958122    -2.7184479      0.038707502   -2.6797404     -21.115202    
    347000   292.1          301.42438      301.68805      300.46941      300.65659      306.88463      0.34193984    -2.7186723      0.038960809   -2.6797115     -22.078731    
    347500   292.6          300.81835      300.58923      301.36157      299.83441      307.79204      0.35335634    -2.7187187      0.038882476   -2.6798362     -19.486159    
    348000   293.1          302.1344       302.1978       301.08442      301.51022      306.58916      0.34826128    -2.7188751      0.039052583   -2.6798225      20.688545    
    348500   293.6          297.32638      297.27967      293.74076      297.004        299.66641      0.27378527    -2.7184689      0.03843112    -2.6800377     -1.0523138    
    349000   294.1          298.19623      298.03506      296.33065      297.91411      300.25458      0.34155943    -2.7184376      0.038543552   -2.6798941     -25.049906    
    349500   294.6          298.74623      298.79499      297.41794      298.64016      299.57185      0.30871033    -2.7185566      0.038614643   -2.679942       15.365571    
    350000   295.1          299.09649      298.91835      295.31161      299.50779      296.2992       0.28418368    -2.7187598      0.038659916   -2.6800999      27.523642    
    350500   295.6          297.51929      297.97909      297.37846      298.03585      293.98444      0.29250554    -2.7185642      0.038456054   -2.6801082      6.5018678    
    351000   296.1          299.53516      299.95053      301.75123      300.3446       293.94986      0.32174267    -2.7188654      0.038716616   -2.6801488     -27.848095    
    351500   296.6          299.07256      299.31223      299.52926      298.80457      301.03212      0.36167365    -2.718553       0.038656823   -2.6798962     -13.080301    
    352000   297.1          299.90523      299.89787      299.15781      299.73257      301.19753      0.3212317     -2.7186157      0.038764451   -2.6798513      29.360348    
    352500   297.6          299.6262       299.85927      298.16429      298.22799      309.5006       0.29697644    -2.7188292      0.038728384   -2.6801009      36.543162    
    353000   298.1          300.22644      300.35057      299.13401      300.07013      301.40437      0.32820901    -2.7186252      0.038805969   -2.6798193      2.9129136    
    353500   298.6          298.52852      298.68115      297.27591      298.06584      301.85135      0.30773494    -2.7182992      0.038586503   -2.6797127      11.578927    
    354000   299.1          299.6047       299.45474      303.31335      299.9462       297.29634      0.32405838    -2.7184524      0.038725605   -2.6797268     -2.4879663    
    354500   299.6          301.34043      301.25183      305.78708      301.57783      299.76157      0.29211753    -2.7185001      0.038949958   -2.6795502      7.0452241    
    355000   300.1          298.59856      298.53999      299.16011      298.0257       302.69298      0.33063866    -2.7183464      0.038595556   -2.6797508      30.251205    
    355500   300.6          302.01481      301.89968      302.01407      301.68774      304.38896      0.28070528    -2.718541       0.039037126   -2.6795039      28.553792    
    356000   301.1          298.77001      298.9739       299.29116      299.02158      297.09115      0.30736996    -2.7184338      0.038617716   -2.6798161     -11.805438    
    356500   301.6          299.14108      298.79947      302.36336      298.48449      303.82196      0.26778533    -2.7186857      0.038665679   -2.68002       -6.2542914    
    357000   302.1          299.63177      299.80013      298.97261      298.88825      304.92153      0.28626385    -2.7187684      0.038729104   -2.6800393      1.804717     
    357500   302.6          298.42997      298.58204      298.08933      298.5819       297.44874      0.28687675    -2.7182918      0.038573764   -2.679718       16.193515    
    358000   303.1          300.73881      300.51766      302.99189      301.71815      293.96408      0.29421104    -2.7186258      0.038872195   -2.6797536     -22.303143    
    358500   303.6          301.01836      300.99015      301.66153      301.95331      294.55457      0.313441      -2.7186838      0.038908328   -2.6797755     -33.784559    
    359000   304.1          300.96291      300.91313      297.89156      300.90107      301.47944      0.28650587    -2.718856       0.038901161   -2.6799548      4.5384563    
    359500   304.6          297.02626      296.9454       297.17479      296.74996      299.04351      0.33647052    -2.719047       0.038392327   -2.6806546      21.472395    
    360000   305.1          296.22565      296.36734      297.12356      296.77756      292.44295      0.32808578    -2.7185643      0.038288844   -2.6802754      15.833212    
    360500   305.6          296.91949      297.06399      298.9148       297.04509      296.12227      0.32074463    -2.7184814      0.038378526   -2.6801028     -20.758547    
    361000   306.1          299.09199      299.27733      298.42054      298.74201      301.62577      0.32992617    -2.7188877      0.038659335   -2.6802283      16.755314    
Loop time of 847.799 on 6 procs for 100000 steps with 28860 atoms

Performance: 10.191 ns/day, 2.355 hours/ns, 117.952 timesteps/s, 3.404 Matom-step/s
99.3% CPU use with 6 MPI tasks x 1 OpenMP threads

MPI task timing breakdown:
Section |  min time  |  avg time  |  max time  |%varavg| %total
---------------------------------------------------------------
Pair    | 646.72     | 683.32     | 732.73     | 134.9 | 80.60
Neigh   | 2.3649     | 2.5762     | 2.9812     |  14.2 |  0.30
Comm    | 80.127     | 130.42     | 166.89     | 310.2 | 15.38
Output  | 0.029724   | 0.037468   | 0.044306   |   2.4 |  0.00
Modify  | 19.567     | 23.562     | 27.171     |  54.9 |  2.78
Other   |            | 7.878      |            |       |  0.93

Nlocal:           4810 ave        5436 max        4033 min
Histogram: 1 1 0 0 0 0 1 2 0 1
Nghost:        3380.33 ave        3700 max        3032 min
Histogram: 1 1 0 1 0 0 1 0 1 1
Neighs:         196276 ave      228508 max      159682 min
Histogram: 2 0 0 0 0 1 0 1 1 1

Total # of neighbors = 1177653
Ave neighs/atom = 40.805717
Neighbor list builds = 397
Dangerous builds = 0
WARNING: No fixes with time integration, atoms won't move
For more information see https://docs.lammps.org/err0028 (src/verlet.cpp:60)
Setting up Verlet run ...
  Unit style    : metal
  Current step  : 0
  Time step     : 0.001
Per MPI rank memory allocation (min/avg/max) = 5.683 | 5.687 | 5.691 Mbytes
   Step          Time           Temp          c_Tnw         c_Ttrack       c_Tinner       c_Tsink        v_ke_max        PotEng         KinEng         TotEng         Press     
         0   0              299.09199      299.27733      298.42054      298.74201      301.62577      0.32992617    -2.7188877      0.038659335   -2.6802283      16.755314    
       500   0.5            299.09199      299.27733      298.42054      298.74201      301.62577      0.32992617    -2.7188877      0.038659335   -2.6802283      16.755314    
      1000   1              299.09199      299.27733      298.42054      298.74201      301.62577      0.32992617    -2.7188877      0.038659335   -2.6802283      16.755314    
      1500   1.5            299.09199      299.27733      298.42054      298.74201      301.62577      0.32992617    -2.7188877      0.038659335   -2.6802283      16.755314    
      2000   2              299.09199      299.27733      298.42054      298.74201      301.62577      0.32992617    -2.7188877      0.038659335   -2.6802283      16.755314    
      2500   2.5            299.09199      299.27733      298.42054      298.74201      301.62577      0.32992617    -2.7188877      0.038659335   -2.6802283      16.755314    
      3000   3              299.09199      299.27733      298.42054      298.74201      301.62577      0.32992617    -2.7188877      0.038659335   -2.6802283      16.755314    
      3500   3.5            299.09199      299.27733      298.42054      298.74201      301.62577      0.32992617    -2.7188877      0.038659335   -2.6802283      16.755314    
      4000   4              299.09199      299.27733      298.42054      298.74201      301.62577      0.32992617    -2.7188877      0.038659335   -2.6802283      16.755314    
      4500   4.5            299.09199      299.27733      298.42054      298.74201      301.62577      0.32992617    -2.7188877      0.038659335   -2.6802283      16.755314    
      5000   5              299.09199      299.27733      298.42054      298.74201      301.62577      0.32992617    -2.7188877      0.038659335   -2.6802283      16.755314    
Loop time of 39.9453 on 6 procs for 5000 steps with 28860 atoms

Performance: 10.815 ns/day, 2.219 hours/ns, 125.171 timesteps/s, 3.612 Matom-step/s
99.3% CPU use with 6 MPI tasks x 1 OpenMP threads

MPI task timing breakdown:
Section |  min time  |  avg time  |  max time  |%varavg| %total
---------------------------------------------------------------
Pair    | 30.515     | 34.323     | 37.818     |  44.6 | 85.92
Neigh   | 0          | 0          | 0          |   0.0 |  0.00
Comm    | 1.9756     | 5.4382     | 9.2641     | 111.8 | 13.61
Output  | 0.0016825  | 0.0018419  | 0.0019811  |   0.2 |  0.00
Modify  | 0.0026854  | 0.0037143  | 0.0052621  |   1.4 |  0.01
Other   |            | 0.1787     |            |       |  0.45

Nlocal:           4810 ave        5432 max        4034 min
Histogram: 1 1 0 0 0 0 1 2 0 1
Nghost:           3385 ave        3713 max        3041 min
Histogram: 1 1 0 1 0 0 1 0 1 1
Neighs:         196388 ave      227502 max      159971 min
Histogram: 2 0 0 0 0 0 1 1 1 1

Total # of neighbors = 1178326
Ave neighs/atom = 40.829037
Neighbor list builds = 0
Dangerous builds = 0
System init for write_data ...
Total wall time: 0:57:41
