LAMMPS (22 Jul 2025 - Update 3)
OMP_NUM_THREADS environment is not set. Defaulting to 1 thread.
  using 1 OpenMP thread(s) per MPI task
# Corte (shear xy) de diamante PERFECTO (sin falla) -- CONTROL.
# Misma orientacion y mismas condiciones que in.shear_SF. La unica diferencia
# fisica es la AUSENCIA de la falla de apilamiento: sirve para demostrar que es
# la falla la que nuclea la plasticidad (el perfecto debe ceder mas tarde / a
# mayor pxy, por inestabilidad homogenea).

#(1) Inicializacion
units		metal
dimension	3
boundary	p p p
atom_style	atomic

# --------------------- DEFINICION DE ATOMOS ---------------------
read_data SampleSTF_perfect        # <-- cristal perfecto, misma orientacion
Reading data file ...
  orthogonal box = (0 0 0) to (43.68665 61.782252 50.444998)
  1 by 3 by 2 MPI processor grid
  reading atoms ...
  24000 atoms
  read_data CPU = 0.055 seconds

set group all type 1
Setting atom values ...
  24000 settings made for type
group C type 1
24000 atoms in group C
mass 1 12.01

#(3) Potencial
pair_style tersoff
pair_coeff * * ./SiC_1994.tersoff C C C C C C
Reading tersoff potential file ./SiC_1994.tersoff with DATE: 2011-05-03

#(4) Minimizacion / relajacion de caja
thermo 100
write_data data_perfect.ini
System init for write_data ...
Neighbor list info ...
  update: every = 1 steps, delay = 0 steps, check = yes
  max neighbors/atom: 2000, page size: 100000
  master list distance cutoff = 4.1
  ghost atom cutoff = 4.1
  binsize = 2.05, bins = 22 31 25
  1 neighbor lists, perpetual/occasional/extra = 1 0 0
  (1) pair tersoff, perpetual
      attributes: full, newton on
      pair build: full/bin/atomonly
      stencil: full/bin/3d
      bin: standard
fix 1 all box/relax iso 0.0 vmax 0.001
minimize 1.0e-10 1.0e-12 10000 20000
WARNING: Energy due to 1 extra global DOFs will be included in minimizer energies
 (src/min.cpp:222)
Per MPI rank memory allocation (min/avg/max) = 4.75 | 4.842 | 5.148 Mbytes
   Step          Temp          E_pair         E_mol          TotEng         Press          Volume    
         0   0             -179336.46      0             -179336.46     -39727.423      136154.06    
         4   0             -179351.72      0             -179351.72     -0.096099537    134931.69    
Loop time of 0.0469875 on 6 procs for 4 steps with 24000 atoms

99.8% CPU use with 6 MPI tasks x 1 OpenMP threads

Minimization stats:
  Stopping criterion = energy tolerance
  Energy initial, next-to-last, final = 
     -179336.455835269  -179351.724246544  -179351.724250953
  Force two-norm initial, final = 10128.191 0.024353037
  Force max component initial, final = 10128.191 0.024352957
  Final line search alpha, max atom move = 0.00018233929 4.440501e-06
  Iterations, force evaluations = 4 5

MPI task timing breakdown:
Section |  min time  |  avg time  |  max time  |%varavg| %total
---------------------------------------------------------------
Pair    | 0.035608   | 0.04099    | 0.044223   |   1.3 | 87.24
Neigh   | 0          | 0          | 0          |   0.0 |  0.00
Comm    | 0.0017215  | 0.0049521  | 0.010318   |   3.8 | 10.54
Output  | 0          | 0          | 0          |   0.0 |  0.00
Modify  | 0          | 0          | 0          |   0.0 |  0.00
Other   |            | 0.001045   |            |       |  2.22

Nlocal:           4000 ave        4410 max        3610 min
Histogram: 1 0 1 0 2 0 0 1 0 1
Nghost:           4631 ave        5021 max        4234 min
Histogram: 1 0 1 0 0 2 0 1 0 1
Neighs:              0 ave           0 max           0 min
Histogram: 6 0 0 0 0 0 0 0 0 0
FullNghs:       184000 ave      202860 max      166060 min
Histogram: 1 0 1 0 2 0 0 1 0 1

Total # of neighbors = 1104000
Ave neighs/atom = 46
Neighbor list builds = 0
Dangerous builds = 0
unfix 1
#### FIRE
min_style fire
minimize 1.0e-10 1.0e-12 10000 20000
  Parameters for fire:
    dmax  delaystep dtgrow dtshrink alpha0 alphashrink tmax tmin   integrator   halfstepback   abcfire  
     0.1     20      1.1     0.5     0.25     0.99      10  0.02 eulerimplicit      yes          no     
Per MPI rank memory allocation (min/avg/max) = 3.625 | 3.717 | 4.023 Mbytes
   Step          Temp          E_pair         E_mol          TotEng         Press     
         4   0             -179351.72      0             -179351.72     -0.096099536  
        46   1.9222859e-15 -179351.72      0             -179351.72     -0.096099551  
Loop time of 0.393652 on 6 procs for 42 steps with 24000 atoms

99.1% CPU use with 6 MPI tasks x 1 OpenMP threads

Minimization stats:
  Stopping criterion = energy tolerance
  Energy initial, next-to-last, final = 
     -179351.724250953  -179351.724250953  -179351.724250953
  Force two-norm initial, final = 6.2249828e-05 2.4222535e-07
  Force max component initial, final = 6.121399e-07 3.6147277e-09
  Final line search alpha, max atom move = 0 0
  Iterations, force evaluations = 42 45

MPI task timing breakdown:
Section |  min time  |  avg time  |  max time  |%varavg| %total
---------------------------------------------------------------
Pair    | 0.2931     | 0.32562    | 0.34235    |   2.9 | 82.72
Neigh   | 0          | 0          | 0          |   0.0 |  0.00
Comm    | 0.046705   | 0.063443   | 0.095878   |   6.5 | 16.12
Output  | 0          | 0          | 0          |   0.0 |  0.00
Modify  | 0          | 0          | 0          |   0.0 |  0.00
Other   |            | 0.004584   |            |       |  1.16

Nlocal:           4000 ave        4208 max        3796 min
Histogram: 3 0 0 0 0 0 0 0 0 3
Nghost:           4631 ave        4840 max        4418 min
Histogram: 3 0 0 0 0 0 0 0 0 3
Neighs:              0 ave           0 max           0 min
Histogram: 6 0 0 0 0 0 0 0 0 0
FullNghs:       184000 ave      193568 max      174616 min
Histogram: 3 0 0 0 0 0 0 0 0 3

Total # of neighbors = 1104000
Ave neighs/atom = 46
Neighbor list builds = 0
Dangerous builds = 0
#### Conjugate Gradient
min_style cg
fix BoxRelax all box/relax aniso 0.0 vmax 0.001
minimize 1.0e-7 1.0e-8 5000 10000
WARNING: Energy due to 3 extra global DOFs will be included in minimizer energies
 (src/min.cpp:222)
Per MPI rank memory allocation (min/avg/max) = 4.75 | 4.842 | 5.148 Mbytes
   Step          Temp          E_pair         E_mol          TotEng         Press          Volume    
        46   1.9222859e-15 -179351.72      0             -179351.72     -0.096099555    134931.69    
        47   1.9222859e-15 -179351.72      0             -179351.72     -0.00042588717  134931.69    
Loop time of 0.0364595 on 6 procs for 1 steps with 24000 atoms

99.8% CPU use with 6 MPI tasks x 1 OpenMP threads

Minimization stats:
  Stopping criterion = energy tolerance
  Energy initial, next-to-last, final = 
     -179351.724250953  -179351.724250953  -179351.724250953
  Force two-norm initial, final = 0.014017987 6.2137707e-05
  Force max component initial, final = 0.0080977691 3.6910431e-05
  Final line search alpha, max atom move = 0.1234908 4.5580988e-06
  Iterations, force evaluations = 1 2

MPI task timing breakdown:
Section |  min time  |  avg time  |  max time  |%varavg| %total
---------------------------------------------------------------
Pair    | 0.01831    | 0.026022   | 0.035065   |   3.7 | 71.37
Neigh   | 0          | 0          | 0          |   0.0 |  0.00
Comm    | 0.00057771 | 0.009597   | 0.017311   |   6.2 | 26.32
Output  | 0          | 0          | 0          |   0.0 |  0.00
Modify  | 0          | 0          | 0          |   0.0 |  0.00
Other   |            | 0.0008405  |            |       |  2.31

Nlocal:           4000 ave        4410 max        3610 min
Histogram: 1 0 1 0 2 0 0 1 0 1
Nghost:           4631 ave        5021 max        4234 min
Histogram: 1 0 1 0 0 2 0 1 0 1
Neighs:              0 ave           0 max           0 min
Histogram: 6 0 0 0 0 0 0 0 0 0
FullNghs:       184000 ave      202860 max      166060 min
Histogram: 1 0 1 0 2 0 0 1 0 1

Total # of neighbors = 1104000
Ave neighs/atom = 46
Neighbor list builds = 0
Dangerous builds = 0
unfix BoxRelax

write_data data_perfect.inicio
System init for write_data ...
thermo 1000

#(5) Velocidades iniciales
velocity	all create 300.0 482748 dist gaussian

## Calculos por atomo
compute 1 all ke/atom
compute 3 all pe/atom
compute 4 all stress/atom NULL

## Von Mises promedio
variable J2 equal sqrt(0.5*((pxx-pyy)^2+(pxx-pzz)^2+(pzz-pyy)^2+6*(pxy^2+pxz^2+pyz^2)))

thermo 100
thermo_style custom step temp ke pe etotal press pxx pyy pzz pxy pxz pyz ly lx lz v_J2 cellalpha cellbeta cellgamma xy xz yz
thermo_modify	lost warn norm yes

#(6) Equilibrado: rampa a 1500 K y 150 GPa, luego hold
fix upTemp all  temp/rescale 1 300.0 1500.0 1.0 1.0
fix upPress all nph aniso 0.0 1500000.0 0.30 drag 1.50
run		5000
Per MPI rank memory allocation (min/avg/max) = 4.542 | 4.618 | 4.934 Mbytes
   Step          Temp          KinEng         PotEng         TotEng         Press           Pxx            Pyy            Pzz            Pxy            Pxz            Pyz             Ly             Lx             Lz            v_J2        CellAlpha       CellBeta      CellGamma          Xy             Xz             Yz      
        47   300            0.038776428   -7.4729885     -7.4342121      7366.8894      7431.3646      7276.7955      7392.5082     -57.922373     -82.809725     -101.79957      61.596806      43.55552       50.293582      284.81968      90             90             90             0              0              0            
       100   312.72         0.040420548   -7.4296304     -7.3892099      23269.056      23195.464      23557.251      23054.453     -15.631514     -183.82095      145.11585      61.587831      43.548387      50.28566       605.86251      90             90             90             0              0              0            
       200   336.72         0.043522663   -7.4276783     -7.3841556      42794.343      43098.735      42262.554      43021.738      5.9775554      718.39342     -457.77113      61.502571      43.487298      50.215074      1678.6251      90             90             90             0              0              0            
       300   360.99272      0.046660026   -7.4235751     -7.3769151      75844.996      75942.284      76073.136      75519.569     -128.42513     -491.49088      232.74729      61.36299       43.388264      50.102964      1089.8651      90             90             90             0              0              0            
       400   384.72         0.049726891   -7.4196733     -7.3699464      106980.94      107108.47      106835.61      106998.73      215.81308      705.11412     -552.49602      61.233522      43.299147      49.996254      1613.5648      90             90             90             0              0              0            
       500   409.37966      0.05291427    -7.4156261     -7.3627118      134823.38      134986.85      135084.28      134399.03      104.60429     -669.66124      456.71456      61.122465      43.221304      49.907333      1554.42        90             90             90             0              0              0            
       600   432.72         0.055931119   -7.4096159     -7.3536848      165289.47      165440.46      164900.64      165527.31     -47.543113      1021.6646     -770.60497      61.00545       43.138424      49.810659      2294.6674      90             90             90             0              0              0            
       700   456.02019      0.05894278    -7.4020977     -7.3431549      197012.98      196691.75      197262.41      197084.79      147.38879     -646.54111      485.15217      60.886993      43.055285      49.71165       1510.3568      90             90             90             0              0              0            
       800   480.83181      0.0621498     -7.3965876     -7.3344378      224228.38      224036.95      224961.51      223686.68     -337.15516      187.19821     -172.64883      60.786068      42.981773      49.632597      1355.3359      90             90             90             0              0              0            
       900   504.72         0.065237462   -7.388854      -7.3236165      256756.1       257442.75      257040.18      255785.38      519.28876      789.21878     -622.59354      60.667757      42.898406      49.536988      2466.2097      90             90             90             0              0              0            
      1000   529.02409      0.068378881   -7.3818613     -7.3134824      285564.06      284661.91      285670.9       286359.38     -282.42706     -1582.5997      1207.1495      60.564272      42.830331      49.448947      3783.0603      90             90             90             0              0              0            
      1100   551.9746       0.071345344   -7.375862      -7.3045167      316042.52      315010.9       317072.85      316043.82     -379.9438       670.37476     -387.6591       60.4542        42.754586      49.364611      2328.2696      90             90             90             0              0              0            
      1200   576.36134      0.074497447   -7.3649983     -7.2905008      346122.31      346018.98      346329.66      346018.3      -412.01221      1810.5124     -1405.6744      60.358216      42.680991      49.284674      4045.6925      90             90             90             0              0              0            
      1300   600.53886      0.077622506   -7.3579981     -7.2803756      376394.59      378995.96      374516.73      375671.08      371.78537     -814.26094      662.8499       60.260771      42.604109      49.202167      4466.2319      90             90             90             0              0              0            
      1400   624.45821      0.080714196   -7.3495895     -7.2688753      406901.25      408734.28      405008         406961.46      55.626914     -1584.6204      1088.381       60.160281      42.536594      49.11854       4638.7624      90             90             90             0              0              0            
      1500   649.13438      0.083903708   -7.338559      -7.2546553      435720.31      436298.08      435426.29      435436.56     -13.302007     -41.628989     -6.6633118      60.065248      42.47449       49.047225      870.07501      90             90             90             0              0              0            
      1600   672.54939      0.08693021    -7.3312482     -7.244318       466581.93      466081.99      466800.51      466863.29      128.34295      855.28675     -584.5794       59.965134      42.407045      48.96598       1958.1841      90             90             90             0              0              0            
      1700   695.75168      0.089929215   -7.3201751     -7.2302459      494406.2       493335.96      494446.65      495435.98     -380.02088      1338.0835     -902.87458      59.88496       42.348022      48.893088      3400.2112      90             90             90             0              0              0            
      1800   720.72         0.09315649    -7.3109948     -7.2178383      527691.98      526412.1       527247.56      529416.27     -666.67977      1296.7323     -1191.5244      59.787066      42.27581       48.809164      4224.9619      90             90             90             0              0              0            
      1900   744.72         0.096258604   -7.3017888     -7.2055302      554045.82      553791.94      553592.22      554753.32     -42.202876      635.4337      -538.31389      59.709219      42.217473      48.747907      1800.5987      90             90             90             0              0              0            
      2000   769.4331       0.09945289    -7.2907313     -7.1912784      586238.12      585024.5       585631.61      588058.25     -262.58616      43.399178      181.56256      59.616671      42.154434      48.665856      2835.8088      90             90             90             0              0              0            
      2100   792.72         0.10246283    -7.2795868     -7.177124       614626.96      614503.76      612574.32      616802.8      -765.35568     -771.90844      295.85466      59.535249      42.094685      48.60327       4153.5049      90             90             90             0              0              0            
      2200   817.58499      0.10567675    -7.2684658     -7.162789       645872.79      645373.47      642797         649447.91     -1237.2894     -301.44811      148.83898      59.446088      42.03162       48.534437      6218.4152      90             90             90             0              0              0            
      2300   840.72         0.10866706    -7.2553692     -7.1467022      677140.87      676602.46      675575.5       679244.66     -1063.3002      153.62789      29.416339      59.353493      41.973328      48.465621      3770.2147      90             90             90             0              0              0            
      2400   864.72         0.11176918    -7.2457235     -7.1339543      705118.65      705131.11      703342.55      706882.29     -586.92439      278.03244     -365.5911       59.280853      41.917567      48.400372      3326.2555      90             90             90             0              0              0            
      2500   888.72         0.11487129    -7.2364998     -7.1216285      734263.99      735502.3       733729.23      733560.46      986.49945      701.69167     -652.13794      59.201982      41.860173      48.334671      3023.9052      90             90             90             0              0              0            
      2600   912.72         0.1179734     -7.2207344     -7.102761       767913.5       769776.79      767840.1       766123.61      962.63608      671.25284     -144.19672      59.11779       41.79426       48.265571      3770.349       90             90             90             0              0              0            
      2700   936.72         0.12107552    -7.2088465     -7.0877709      797700.15      797492.01      797880.38      797728.05      117.97874      658.59875     -1227.5575      59.038018      41.744346      48.199049      2445.1139      90             90             90             0              0              0            
      2800   960.72         0.12417763    -7.1973538     -7.0731761      823828.51      824054.95      822506.95      824923.64     -615.47778      734.66346     -530.56151      58.97039       41.697179      48.146407      2845.3091      90             90             90             0              0              0            
      2900   984.43865      0.12724338    -7.1821613     -7.0549179      857816.17      856550.25      858541.86      858356.4      -1335.0495     -289.39641      337.37716      58.881514      41.637891      48.075723      3093.7582      90             90             90             0              0              0            
      3000   1008.72        0.13038186    -7.1724191     -7.0420373      886743.02      883772.45      889491.57      886965.05     -9.0906986     -1546.453       1057.2282      58.80636       41.588877      48.013126      5930.4463      90             90             90             0              0              0            
      3100   1032.72        0.13348397    -7.1565916     -7.0231077      918658.21      919001.86      919792.76      917180.01      342.91757     -1907.7519      1129.5271      58.726286      41.529608      47.959237      4525.9673      90             90             90             0              0              0            
      3200   1056.72        0.13658609    -7.1457636     -7.0091775      945569.37      947069.96      944416.21      945221.93      447.08386      284.00966     -693.1171       58.663787      41.479985      47.906931      2799.3366      90             90             90             0              0              0            
      3300   1080.72        0.1396882     -7.1318154     -6.9921272      975321.75      974384.42      976744.9       974835.92     -66.527744      689.38028     -744.58444      58.594434      41.435507      47.840986      2795.0273      90             90             90             0              0              0            
      3400   1104.72        0.14279032    -7.119635      -6.9768446      1005081.4      1004623.5      1003359.8      1007260.8     -774.84582     -445.78269      331.08056      58.526947      41.383748      47.78097       3822.4991      90             90             90             0              0              0            
      3500   1127.7608      0.14576845    -7.1069827     -6.9612142      1036450.3      1037625.5      1036674.2      1035051.1      1128.8707      1448.4802     -1059.2983      58.454302      41.328515      47.725546      4308.9591      90             90             90             0              0              0            
      3600   1152.7526      0.14899875    -7.0929713     -6.9439725      1069243.8      1068804.5      1069839.2      1069087.7      86.626017     -53.929449     -550.99819      58.380549      41.277507      47.658199      1341.6281      90             90             90             0              0              0            
      3700   1176.6132      0.15208286    -7.0813912     -6.9293083      1096880        1096468.4      1096443.2      1097728.5     -142.0433      -928.29632      384.36079      58.309323      41.234338      47.61054       2170.0547      90             90             90             0              0              0            
      3800   1200.72        0.15519877    -7.0652185     -6.9100197      1124553        1125294.2      1124815.6      1123549.2      591.85278     -400.10842      253.11437      58.249297      41.192606      47.562585      2040.15        90             90             90             0              0              0            
      3900   1224.5602      0.15828023    -7.0499222     -6.8916419      1154900.1      1153257.7      1154397.9      1157044.7     -42.652023     -450.18805     -425.5608       58.186362      41.144367      47.506401      3532.7376      90             90             90             0              0              0            
      4000   1248.72        0.161403      -7.0395373     -6.8781343      1185949.6      1186285.8      1186770.8      1184792.1      568.45669     -481.88534     -49.638489      58.116785      41.091255      47.448458      2205.4865      90             90             90             0              0              0            
      4100   1272.9836      0.16453919    -7.0224118     -6.8578726      1217149.5      1216425.3      1215334.4      1219688.9     -1814.7673      871.09652     -1042.6596      58.051259      41.046201      47.396343      5551.5576      90             90             90             0              0              0            
      4200   1297.5449      0.16771385    -7.009496      -6.8417822      1246987.2      1248250.1      1248469.9      1244241.5      1684.3717      418.98566      106.05824      57.985028      41.003718      47.342328      5105.9187      90             90             90             0              0              0            
      4300   1321.1488      0.17076477    -6.9942915     -6.8235268      1275290.1      1270761.2      1276796.8      1278312.5     -2776.873      -968.44657      812.16312      57.923552      40.963621      47.29451       8706.317       90             90             90             0              0              0            
      4400   1344.364       0.17376544    -6.9802519     -6.8064864      1304324.8      1306154.4      1303716.7      1303103.4      1032.1864      141.65321     -184.8141       57.861638      40.916569      47.250745      3342.5031      90             90             90             0              0              0            
      4500   1367.8247      0.17679785    -6.963772      -6.7869742      1336059.1      1334183.7      1335983.7      1338010       -678.33497     -107.42206      458.2905       57.799263      40.87738       47.189677      3610.8823      90             90             90             0              0              0            
      4600   1392.72        0.18001569    -6.9485824     -6.7685667      1366184.8      1366980.3      1365358.6      1366215.5      715.2703      -1560.3153      581.15675      57.73597       40.829831      47.14529       3438.9592      90             90             90             0              0              0            
      4700   1417.2305      0.18318379    -6.9367128     -6.753529       1396115.2      1393126.9      1398369.8      1396848.9      380.6596       1232.5357     -338.04728      57.676536      40.790791      47.088247      5211.7251      90             90             90             0              0              0            
      4800   1440.72        0.18621992    -6.9189726     -6.7327527      1425047.9      1423203.4      1428784        1423156.3     -880.69164     -369.42264     -489.84979      57.614923      40.749249      47.046667      5904.5949      90             90             90             0              0              0            
      4900   1465.1784      0.18938128    -6.9037078     -6.7143265      1456341.3      1462149.1      1452123.6      1454751.1      1037.0471      164.46867     -376.75037      57.561845      40.694817      47.004595      9208.9709      90             90             90             0              0              0            
      5000   1488.72        0.19242415    -6.888417      -6.6959929      1486921.5      1486391.5      1486507.2      1487865.8     -1513.4941     -1012.5498     -566.3184       57.497552      40.656989      46.958689      3595.2875      90             90             90             0              0              0            
      5047   1500.6954      0.19397202    -6.8830436     -6.6890716      1499410        1502530.1      1496021        1499679        277.13286      817.49843      82.580167      57.475548      40.635076      46.932421      5847.6636      90             90             90             0              0              0            
Loop time of 36.0815 on 6 procs for 5000 steps with 24000 atoms

Performance: 11.973 ns/day, 2.005 hours/ns, 138.575 timesteps/s, 3.326 Matom-step/s
99.1% CPU use with 6 MPI tasks x 1 OpenMP threads

MPI task timing breakdown:
Section |  min time  |  avg time  |  max time  |%varavg| %total
---------------------------------------------------------------
Pair    | 32.352     | 32.936     | 33.607     |   8.7 | 91.28
Neigh   | 0.041905   | 0.042853   | 0.043428   |   0.3 |  0.12
Comm    | 1.614      | 2.2962     | 2.888      |  32.8 |  6.36
Output  | 0.0036561  | 0.0038138  | 0.0045591  |   0.5 |  0.01
Modify  | 0.65494    | 0.67252    | 0.68666    |   1.5 |  1.86
Other   |            | 0.1297     |            |       |  0.36

Nlocal:           4000 ave        4044 max        3964 min
Histogram: 1 1 0 0 2 0 0 1 0 1
Nghost:           5411 ave        5441 max        5362 min
Histogram: 1 0 0 1 0 0 1 1 0 2
Neighs:              0 ave           0 max           0 min
Histogram: 6 0 0 0 0 0 0 0 0 0
FullNghs:       234339 ave      237924 max      231731 min
Histogram: 2 0 0 1 1 0 0 1 0 1

Total # of neighbors = 1406032
Ave neighs/atom = 58.584667
Neighbor list builds = 7
Dangerous builds = 0
unfix		upTemp
unfix		upPress

fix holdTemp all  temp/rescale 1 1500.0 1500.0 1.0 1.0
fix holdPress all nph aniso 1500000.0 1500000.0 0.30 drag 1.50
run		10000
Per MPI rank memory allocation (min/avg/max) = 4.937 | 4.949 | 4.965 Mbytes
   Step          Temp          KinEng         PotEng         TotEng         Press           Pxx            Pyy            Pzz            Pxy            Pxz            Pyz             Ly             Lx             Lz            v_J2        CellAlpha       CellBeta      CellGamma          Xy             Xz             Yz      
      5047   1500.6954      0.19397202    -6.8830436     -6.6890716      1499410        1502530.1      1496021        1499679        277.13286      817.49843      82.580167      57.475548      40.635076      46.932421      5847.6636      90             90             90             0              0              0            
      5100   1500           0.19388214    -6.882377      -6.6884949      1499197.1      1497371.5      1502718.3      1497501.3      657.70748      495.50614     -329.45358      57.473671      40.647596      46.924458      5501.9078      90             90             90             0              0              0            
      5200   1499.4048      0.19380521    -6.8840774     -6.6902722      1499897.3      1500633.4      1497800.7      1501257.8     -891.90094     -1182.9443      601.61773      57.474726      40.64249       46.924663      4225.347       90             90             90             0              0              0            
      5300   1500           0.19388214    -6.8802864     -6.6864043      1500285.7      1496551.5      1503013        1501292.6     -1920.6662     -1400.5556      970.26112      57.471848      40.641943      46.929719      7305.4645      90             90             90             0              0              0            
      5400   1500           0.19388214    -6.880986      -6.6871039      1500637.7      1502853.9      1501028.7      1498030.7      1453.658       652.94807     -1337.963       57.473093      40.64013       46.930497      5547.9467      90             90             90             0              0              0            
      5500   1499.5076      0.1938185     -6.882894      -6.6890755      1500702.1      1498955.5      1499394.9      1503756.1     -1929.6826     -1114.6998      104.86755      57.474836      40.638562      46.926237      6005.0807      90             90             90             0              0              0            
      5600   1500           0.19388214    -6.884428      -6.6905458      1499382.6      1499565.9      1497816.8      1500765.1     -1179.9257     -620.07481     -418.08086      57.476763      40.641402      46.928733      3528.3643      90             90             90             0              0              0            
      5700   1500           0.19388214    -6.8834747     -6.6895926      1499522.9      1500620.6      1499024.7      1498923.3      1173.9302     -1157.3313     -199.90714      57.474273      40.643287      46.927698      3315.354       90             90             90             0              0              0            
      5800   1500           0.19388214    -6.8822134     -6.6883313      1500240.1      1496736.5      1502250.7      1501733       -1239.2488      736.28707     -930.22727      57.475377      40.642276      46.926456      6053.8388      90             90             90             0              0              0            
      5900   1500           0.19388214    -6.8792219     -6.6853397      1501080.5      1505151        1499099.9      1498990.5      1665.9929     -2045.5843      1809.0189      57.473915      40.641131      46.928616      8245.4339      90             90             90             0              0              0            
      6000   1499.8967      0.19386878    -6.8815594     -6.6876906      1500182.7      1496876.9      1504566.3      1499104.9     -1424.5678      3608.6545     -2526.5105      57.47553       40.64037       46.928354      10548.207      90             90             90             0              0              0            
      6100   1500.2037      0.19390847    -6.8837462     -6.6898377      1499680.6      1503303.8      1496051.3      1499686.6      288.08154      126.3747       1162.7178      57.47615       40.641349      46.929024      6618.3681      90             90             90             0              0              0            
      6200   1500           0.19388214    -6.8857846     -6.6919024      1498864        1497795.8      1498791.4      1500005       -659.09527     -945.68955      499.85481      57.47525       40.643288      46.928208      2899.6649      90             90             90             0              0              0            
      6300   1500           0.19388214    -6.8834515     -6.6895694      1500663.1      1498612        1506092.1      1497285.2      665.53615      857.25214     -1821.4484      57.475143      40.642024      46.928507      9006.8567      90             90             90             0              0              0            
      6400   1500           0.19388214    -6.8840504     -6.6901683      1499682.2      1502337.1      1492064.8      1504644.8     -1150.889      -2149.1852      917.40904      57.479169      40.641425      46.928525      12446.068      90             90             90             0              0              0            
      6500   1500           0.19388214    -6.8828012     -6.6889191      1500783        1501178.6      1504650.1      1496520.2      1051.2265      2291.5677     -1041.0578      57.475996      40.641738      46.926889      8499.7065      90             90             90             0              0              0            
      6600   1500.3431      0.19392649    -6.8826445     -6.688718       1500320.7      1500825        1497841.5      1502295.5     -695.83884     -1450.1072      1801.6426      57.475586      40.641963      46.927659      5740.1475      90             90             90             0              0              0            
      6700   1500           0.19388214    -6.8819556     -6.6880735      1500400.2      1499744.1      1502147.6      1499308.9      286.91761     -544.33276      202.53173      57.473941      40.641681      46.929032      2875.9793      90             90             90             0              0              0            
      6800   1500           0.19388214    -6.8816514     -6.6877692      1500381.4      1497369.1      1504113.8      1499661.1     -893.20728      2538.4313     -1854.2776      57.47237       40.642834      46.929842      8205.1695      90             90             90             0              0              0            
      6900   1499.3767      0.19380157    -6.8819748     -6.6881732      1500060.6      1505786.1      1495595.3      1498800.5      2177.3357     -4991.0133      3488.8754      57.474796      40.643005      46.929995      14385.123      90             90             90             0              0              0            
      7000   1499.7697      0.19385236    -6.88227       -6.6884176      1500038.8      1494531.7      1504306.5      1501278.2     -2663.8436      5497.0322     -3881.0545      57.476982      40.641671      46.928187      15239.567      90             90             90             0              0              0            
      7100   1500           0.19388214    -6.8825344     -6.6886522      1500447.7      1505829.9      1498042.7      1497470.7      2088.9705     -4433.5688      3193.2316      57.479759      40.639201      46.927774      12964.302      90             90             90             0              0              0            
      7200   1500           0.19388214    -6.8818032     -6.687921       1499980.2      1499817.8      1496857.2      1503265.7     -1957.92        2898.7661     -1340.8619      57.479857      40.642238      46.927933      8541.9034      90             90             90             0              0              0            
      7300   1500           0.19388214    -6.8828094     -6.6889273      1499682        1501709.5      1502216        1495120.4      2791.272       160.96466     -638.5881       57.474563      40.644909      46.9295        8466.7381      90             90             90             0              0              0            
      7400   1500.0169      0.19388433    -6.8833628     -6.6894785      1499924.5      1497265.9      1502304.5      1500203.2     -480.60171     -1674.6057      1624.4006      57.472177      40.644253      46.931978      6019.7411      90             90             90             0              0              0            
      7500   1500           0.19388214    -6.8818899     -6.6880078      1500816.3      1499977.5      1503270        1499201.2      384.34516      1680.5946     -1517.329       57.471357      40.641206      46.932866      5461.0013      90             90             90             0              0              0            
      7600   1499.9113      0.19387067    -6.8839933     -6.6901226      1499765.5      1501580.5      1500844.1      1496871.7      279.96482     -1772.8838      1482.5487      57.477215      40.639845      46.932958      5958.679       90             90             90             0              0              0            
      7700   1500           0.19388214    -6.8840914     -6.6902092      1498845.5      1498871.3      1499449.8      1498215.4     -772.02909      1392.0957     -1252.6143      57.480399      40.640989      46.930325      3667.8654      90             90             90             0              0              0            
      7800   1500           0.19388214    -6.8850889     -6.6912068      1499909.7      1500423.3      1499405.9      1499899.9      682.84672      54.662232     -208.8059       57.479576      40.64024       46.925303      1521.5517      90             90             90             0              0              0            
      7900   1500           0.19388214    -6.882974      -6.6890918      1499568        1498926        1500216.7      1499561.2     -860.38752     -964.42197      474.82137      57.47885       40.640484      46.930783      2633.8227      90             90             90             0              0              0            
      8000   1500           0.19388214    -6.8848223     -6.6909402      1499050.6      1500175.9      1500030        1496945.8      804.67852     -1515.4939      1436.4097      57.477982      40.643039      46.932635      5000.6006      90             90             90             0              0              0            
      8100   1500           0.19388214    -6.8817758     -6.6878936      1501476.3      1499246.1      1502162.4      1503020.4     -1466.0632      413.36275     -612.00676      57.473925      40.642378      46.927088      4452.8143      90             90             90             0              0              0            
      8200   1500           0.19388214    -6.8801453     -6.6862632      1500988.2      1502887.5      1500265.8      1499811.3      247.76103      356.38671      170.47565      57.474902      40.643663      46.928159      2987.2519      90             90             90             0              0              0            
      8300   1500           0.19388214    -6.8840285     -6.6901463      1499560.3      1502955.1      1501151.7      1494574.2      800.17021     -598.43588      878.33101      57.478164      40.642269      46.929584      7980.3766      90             90             90             0              0              0            
      8400   1500           0.19388214    -6.8823085     -6.6884263      1500333.8      1499071.5      1499607.1      1502322.8     -1406.6775      1831.2475     -2256.155       57.477588      40.64199       46.931463      6354.8028      90             90             90             0              0              0            
      8500   1500.8887      0.193997      -6.882085      -6.688088       1500693.3      1504882.2      1500066.3      1497131.5      1814.9626     -1142.2147      875.59877      57.476941      40.640369      46.931112      7876.3098      90             90             90             0              0              0            
      8600   1500           0.19388214    -6.8831191     -6.689237       1500760.6      1498655.3      1500124        1503502.4     -2184.7332      2073.2811     -1345.241       57.478826      40.641726      46.926394      7153.7594      90             90             90             0              0              0            
      8700   1500           0.19388214    -6.8834794     -6.6895973      1499193.8      1501213.7      1496447        1499920.6      750.90667     -2392.6398      2201.8508      57.482493      40.643453      46.929787      7186.0699      90             90             90             0              0              0            
      8800   1500           0.19388214    -6.8851641     -6.691282       1499594.7      1496127        1502487.1      1500170       -1049.2628      1566.8604     -1176.3933      57.473728      40.645412      46.929624      6775.1398      90             90             90             0              0              0            
      8900   1500.92        0.19400106    -6.8845192     -6.6905181      1500039.1      1500538.3      1496052.5      1503526.4     -506.00671     -926.10585      559.89076      57.478205      40.644498      46.927459      6836.4229      90             90             90             0              0              0            
      9000   1500.7635      0.19398082    -6.8843524     -6.6903716      1499518.3      1502968.6      1499780.3      1495806        3061.4139      219.07075     -883.79517      57.478155      40.644151      46.929417      8320.82        90             90             90             0              0              0            
      9100   1500           0.19388214    -6.8845249     -6.6906427      1499367.7      1495337.6      1500205.4      1502560       -2357.385      -1523.838       650.24657      57.479744      40.641747      46.931983      8099.8992      90             90             90             0              0              0            
      9200   1500           0.19388214    -6.8838648     -6.6899826      1500273        1504726        1496259.3      1499833.5      2004.5715     -556.31106      82.250844      57.479323      40.638734      46.931146      8197.6526      90             90             90             0              0              0            
      9300   1500           0.19388214    -6.8823642     -6.6884821      1500180.8      1498368.3      1504652        1497522.2      83.907719     -189.49719     -442.27806      57.478274      40.641887      46.927561      6799.5482      90             90             90             0              0              0            
      9400   1500           0.19388214    -6.8831415     -6.6892594      1498917.5      1496085.2      1496623.4      1504044       -3107.554      -1862.9598      602.32959      57.476578      40.643631      46.932496      9990.965       90             90             90             0              0              0            
      9500   1500           0.19388214    -6.8824251     -6.688543       1499946.8      1502642.9      1500583.8      1496613.7      1386.0595      1624.7228     -1106.1088      57.473975      40.642674      46.930821      6747.5358      90             90             90             0              0              0            
      9600   1500           0.19388214    -6.8815664     -6.6876843      1500399.3      1497123.5      1500559.2      1503515       -1900.4501     -1876.795       1094.207       57.474464      40.642192      46.930225      7462.5688      90             90             90             0              0              0            
      9700   1500           0.19388214    -6.883796      -6.6899139      1499706.1      1501947.8      1497291.7      1499878.7      339.94757      1565.8433     -1116.8388      57.477734      40.641629      46.930577      5269.8161      90             90             90             0              0              0            
      9800   1499.4485      0.19381086    -6.8822419     -6.688431       1500932        1499770.8      1502620        1500405.2     -1013.7362     -676.20132      480.61825      57.474651      40.641291      46.929924      3443.9273      90             90             90             0              0              0            
      9900   1500.9722      0.1940078     -6.8853959     -6.6913881      1498540.2      1500144.2      1497817.4      1497659.1      617.38068     -133.74313     -84.211886      57.478071      40.644217      46.930871      2650.6995      90             90             90             0              0              0            
     10000   1499.0339      0.19375727    -6.8833774     -6.6896201      1500290        1496457.8      1502832.9      1501579.3     -1959.7789      50.131596     -248.62437      57.473016      40.643765      46.929667      6777.682       90             90             90             0              0              0            
     10100   1500.7442      0.19397833    -6.8845638     -6.6905855      1499654.6      1501542.2      1497023.1      1500398.4      778.61306      1803.2541     -492.51176      57.475949      40.642195      46.931064      5372.4765      90             90             90             0              0              0            
     10200   1500           0.19388214    -6.8844803     -6.6905982      1499770.7      1500828.3      1500039.1      1498444.6      1045.4668     -1986.5394      1135.2589      57.478459      40.641713      46.932263      4838.1996      90             90             90             0              0              0            
     10300   1500           0.19388214    -6.8834469     -6.6895648      1499483        1498533.4      1500674.2      1499241.4     -70.032487      1272.1634     -1521.9172      57.478906      40.642483      46.930622      3922.6427      90             90             90             0              0              0            
     10400   1500           0.19388214    -6.8837102     -6.6898281      1500251.6      1504669.5      1494911.1      1501174.1      351.76446     -795.96437      118.65868      57.480323      40.640702      46.92855       8697.6224      90             90             90             0              0              0            
     10500   1499.1045      0.19376639    -6.8838637     -6.6900973      1499855.4      1496792.4      1501500.8      1501272.9     -844.8018      -1128.6952      1053.1203      57.481712      40.643013      46.92661       5517.0916      90             90             90             0              0              0            
     10600   1500           0.19388214    -6.8843142     -6.6904321      1499436.1      1503500.5      1494917.6      1499890.3      1415.0845     -252.30801      635.18227      57.477123      40.645516      46.929389      7945.0118      90             90             90             0              0              0            
     10700   1500           0.19388214    -6.8840643     -6.6901821      1500606.3      1496931.2      1505606.6      1499281       -793.31362     -1790.1519      841.78141      57.473369      40.64169       46.932139      8603.8725      90             90             90             0              0              0            
     10800   1500.3294      0.19392471    -6.8849566     -6.6910319      1500163.3      1501448.3      1501652.5      1497389        546.51877      342.38668      738.76942      57.47509       40.640556      46.934354      4498.1286      90             90             90             0              0              0            
     10900   1500           0.19388214    -6.8824563     -6.6885742      1500494.4      1501475.9      1497340.6      1502666.9     -801.45164     -1594.9474      944.87448      57.478707      40.642773      46.930365      5973.3899      90             90             90             0              0              0            
     11000   1500           0.19388214    -6.8823961     -6.688514       1500105.5      1493490.9      1505173.6      1501652       -2973.9161      1597.8824     -1902.3688      57.476169      40.644574      46.930163      12360.967      90             90             90             0              0              0            
     11100   1500           0.19388214    -6.8831638     -6.6892817      1500206.1      1505490.8      1495643.6      1499484        3533.8226     -2045.7972      1649.8123      57.478425      40.643847      46.929272      11492.811      90             90             90             0              0              0            
     11200   1500.0337      0.19388649    -6.8823303     -6.6884438      1500491.6      1491957.8      1506736.4      1502780.6     -3955.4899     -267.72218      411.03844      57.477707      40.644612      46.928858      14941.695      90             90             90             0              0              0            
     11300   1500           0.19388214    -6.8847883     -6.6909061      1498333.8      1501977.4      1496229        1496795.2      2628.2885      1265.8083     -482.43116      57.476441      40.644584      46.935258      7505.8839      90             90             90             0              0              0            
     11400   1499.9853      0.19388023    -6.8844576     -6.6905773      1500229.3      1501203.9      1500611.3      1498872.9      409.14871     -3659.1931      2171.0798      57.476143      40.64206       46.931011      7695.1659      90             90             90             0              0              0            
     11500   1500           0.19388214    -6.8844233     -6.6905412      1499921.7      1497142.6      1501920.4      1500702       -1115.4619      1017.4692     -775.87552      57.478588      40.641225      46.930812      5209.071       90             90             90             0              0              0            
     11600   1500           0.19388214    -6.8834988     -6.6896166      1499926.6      1501768.8      1497941.7      1500069.2      307.2171      -338.98401      174.88098      57.4797        40.641557      46.93187       3427.899       90             90             90             0              0              0            
     11700   1500           0.19388214    -6.8827669     -6.6888847      1500428.2      1500207        1501739.9      1499337.7      333.68103     -630.36475      994.74793      57.479984      40.639405      46.931601      2988.76        90             90             90             0              0              0            
     11800   1500.9725      0.19400784    -6.8842222     -6.6902143      1499408.8      1498231.1      1501075.4      1498920       -144.63586      1858.7833     -1677.4348      57.476288      40.643381      46.934002      5047.259       90             90             90             0              0              0            
     11900   1500           0.19388214    -6.8846358     -6.6907536      1500032.9      1499877.8      1498263.7      1501957.2     -560.06553     -2631.8481      2277.8977      57.472654      40.644346      46.930419      6897.3125      90             90             90             0              0              0            
     12000   1500           0.19388214    -6.8822562     -6.6883741      1499941.9      1498213.2      1504514.6      1497098        206.3432       4727.6645     -3937.3336      57.476895      40.646527      46.931115      12714.806      90             90             90             0              0              0            
     12100   1499.5622      0.19382555    -6.8839894     -6.6901639      1500064.4      1500149.8      1497598.5      1502445       -1550.6165     -4217.2856      2587.854       57.4833        40.641636      46.927696      9914.3221      90             90             90             0              0              0            
     12200   1500           0.19388214    -6.8825468     -6.6886647      1501405.5      1504580        1501216.6      1498420        2032.7094      2960.3452     -2646.2938      57.478507      40.639203      46.928561      9393.325       90             90             90             0              0              0            
     12300   1500           0.19388214    -6.8849586     -6.6910765      1499341.8      1497785.3      1501888        1498352.1     -275.50879     -1351.9205      636.78283      57.477679      40.643821      46.931874      4664.2164      90             90             90             0              0              0            
     12400   1500           0.19388214    -6.8828329     -6.6889507      1500178.4      1500097.3      1497389.2      1503048.6     -272.75621     -407.08529      496.98085      57.472446      40.647133      46.930736      5049.4821      90             90             90             0              0              0            
     12500   1500.1838      0.19390589    -6.8831847     -6.6892789      1499991.3      1496695.5      1505493.4      1497785       -739.19763      836.41361     -1081.0501      57.473017      40.644388      46.930174      8732.0939      90             90             90             0              0              0            
     12600   1500           0.19388214    -6.8832307     -6.6893486      1500288.9      1501499.4      1497327.3      1502040.1      452.77549     -3677.4301      2169.0983      57.477848      40.642139      46.930775      8674.9774      90             90             90             0              0              0            
     12700   1500           0.19388214    -6.8828398     -6.6889576      1499967.1      1499978.1      1501696.6      1498226.6      507.80288      5336.2167     -3701.7114      57.479892      40.641993      46.930792      11676.41       90             90             90             0              0              0            
     12800   1500.6635      0.1939679     -6.8850524     -6.6910845      1499957        1497707.9      1498017.2      1504145.9     -1515.3108     -6311.0709      4646.0779      57.48212       40.64387       46.925349      15188.427      90             90             90             0              0              0            
     12900   1500           0.19388214    -6.8829391     -6.689057       1500571.6      1500609.3      1501430.4      1499675        773.88422      6913.6002     -4082.6036      57.475233      40.64376       46.928617      14053.74       90             90             90             0              0              0            
     13000   1500           0.19388214    -6.8841968     -6.6903147      1500242.5      1498504.4      1503542.8      1498680.4     -623.91427     -5375.1765      4115.0833      57.473598      40.645629      46.929672      12774.067      90             90             90             0              0              0            
     13100   1499.3378      0.19379654    -6.881237      -6.6874404      1500347.6      1500938.3      1497943.6      1502160.9     -586.9947       3304.6528     -1864.5259      57.473841      40.646116      46.933297      7638.6749      90             90             90             0              0              0            
     13200   1500           0.19388214    -6.8840947     -6.6902126      1499601.9      1500001        1502148.2      1496656.3      714.60514     -3621.3085      1158.3392      57.480891      40.641571      46.932579      8238.8083      90             90             90             0              0              0            
     13300   1500           0.19388214    -6.8831366     -6.6892544      1500553.7      1503212.3      1492371.4      1506077.5     -304.46119     -703.01607      513.13761      57.482969      40.642084      46.92558       12623.274      90             90             90             0              0              0            
     13400   1500           0.19388214    -6.8843189     -6.6904368      1500068.8      1498286.4      1504271.1      1497648.8      24.399125      1074.0133     -762.39497      57.481552      40.643837      46.930151      6726.3743      90             90             90             0              0              0            
     13500   1500.9528      0.19400529    -6.8815981     -6.6875928      1499901.4      1502121.4      1500180.8      1497401.8      281.05234     -2152.0767      2109.6122      57.477473      40.644423      46.933509      6660.6446      90             90             90             0              0              0            
     13600   1500           0.19388214    -6.8818349     -6.6879528      1500478.7      1500044.7      1498360.2      1503031.2     -1820.8198      2843.1601     -1780.0896      57.476566      40.644013      46.930268      7777.5538      90             90             90             0              0              0            
     13700   1500           0.19388214    -6.8833155     -6.6894334      1500377.7      1500302        1503900.8      1496930.2      656.31748     -3481.3442      3233.0985      57.478825      40.643454      46.930256      10269.633      90             90             90             0              0              0            
     13800   1500           0.19388214    -6.8827225     -6.6888404      1500878.5      1502765.4      1495109.3      1504760.9     -1341.0105      3196.7144     -2781.4232      57.481327      40.64109       46.929537      11710.544      90             90             90             0              0              0            
     13900   1500           0.19388214    -6.883626      -6.6897439      1499350        1496675        1504519.7      1496855.3     -415.59769     -342.12639      935.41938      57.479502      40.644553      46.931855      7978.1455      90             90             90             0              0              0            
     14000   1500           0.19388214    -6.8821392     -6.6882571      1500516.1      1503595.9      1498789.6      1499162.9      1529.0213     -1546.5168      905.79124      57.476646      40.64315       46.931159      6172.209       90             90             90             0              0              0            
     14100   1500.909       0.19399963    -6.8835085     -6.6895089      1499467.9      1498729.8      1499941.5      1499732.5     -626.07864      3400.4293     -2449.6448      57.477788      40.645159      46.93037       7424.6665      90             90             90             0              0              0            
     14200   1500           0.19388214    -6.8824202     -6.688538       1500110        1499076.6      1502425.7      1498827.6     -582.66876     -3366.1096      2621.0391      57.479177      40.643403      46.933065      8229.9629      90             90             90             0              0              0            
     14300   1499.0017      0.1937531     -6.8829938     -6.6892407      1500089.3      1499895.3      1499110.5      1501262.1     -1339.1958      3067.8294     -2659.59        57.476808      40.64209       46.932061      7641.474       90             90             90             0              0              0            
     14400   1500           0.19388214    -6.8828654     -6.6889832      1500349.5      1501831.8      1499079        1500137.6      538.123       -3017.3881      1679.412       57.480095      40.642882      46.92875       6513.6833      90             90             90             0              0              0            
     14500   1500           0.19388214    -6.8836361     -6.689754       1500108.9      1499535        1499062.6      1501729.2     -540.14504      1387.2593     -855.16055      57.478115      40.6441        46.928959      3862.2184      90             90             90             0              0              0            
     14600   1500           0.19388214    -6.8847841     -6.690902       1499312.1      1499704.8      1498699.2      1499532.4      549.72902     -518.55521      350.3141       57.480264      40.644426      46.928756      1717.2583      90             90             90             0              0              0            
     14700   1500           0.19388214    -6.8858997     -6.6920175      1499883.1      1501843.4      1499081        1498725        1177.6329     -2917.3811      2714.1152      57.479384      40.642916      46.928804      7780.3429      90             90             90             0              0              0            
     14800   1500           0.19388214    -6.8827706     -6.6888885      1500453.1      1497847.1      1502584.7      1500927.4     -1256.6821      4173.0855     -2134.3841      57.478173      40.642419      46.93223       9380.1843      90             90             90             0              0              0            
     14900   1500.743       0.19397817    -6.8838151     -6.6898369      1499576.5      1502029.2      1496524.6      1500175.9      1023.5792     -4579.6846      2999.7095      57.478161      40.644223      46.932354      10797.792      90             90             90             0              0              0            
     15000   1500           0.19388214    -6.8839004     -6.6900182      1500307.5      1497107.5      1504999        1498816.1     -1462.6589      2956.7324     -2113.0392      57.474886      40.64321       46.932304      9886.9462      90             90             90             0              0              0            
     15047   1500           0.19388214    -6.8829372     -6.689055       1500042.7      1499052.1      1501444.2      1499631.8     -270.35696     -217.61489      244.8012       57.479986      40.643239      46.930522      2283.1053      90             90             90             0              0              0            
Loop time of 75.9791 on 6 procs for 10000 steps with 24000 atoms

Performance: 11.372 ns/day, 2.111 hours/ns, 131.615 timesteps/s, 3.159 Matom-step/s
99.2% CPU use with 6 MPI tasks x 1 OpenMP threads

MPI task timing breakdown:
Section |  min time  |  avg time  |  max time  |%varavg| %total
---------------------------------------------------------------
Pair    | 69.401     | 70.49      | 71.429     |   9.6 | 92.78
Neigh   | 0          | 0          | 0          |   0.0 |  0.00
Comm    | 2.9057     | 3.872      | 4.9253     |  40.8 |  5.10
Output  | 0.0072352  | 0.0075505  | 0.0090445  |   0.8 |  0.01
Modify  | 1.3101     | 1.3485     | 1.3778     |   2.1 |  1.77
Other   |            | 0.2614     |            |       |  0.34

Nlocal:           4000 ave        4022 max        3981 min
Histogram: 2 1 0 0 0 0 1 0 0 2
Nghost:        5439.83 ave        5458 max        5414 min
Histogram: 2 0 0 0 0 1 0 0 0 3
Neighs:              0 ave           0 max           0 min
Histogram: 6 0 0 0 0 0 0 0 0 0
FullNghs:       248132 ave      250099 max      246688 min
Histogram: 3 0 0 0 0 1 0 0 1 1

Total # of neighbors = 1488792
Ave neighs/atom = 62.033
Neighbor list builds = 0
Dangerous builds = 0
unfix		holdTemp
unfix		holdPress

fix	INTEGRATE_FIX  all nve
run 10000
Per MPI rank memory allocation (min/avg/max) = 4.937 | 4.949 | 4.965 Mbytes
   Step          Temp          KinEng         PotEng         TotEng         Press           Pxx            Pyy            Pzz            Pxy            Pxz            Pyz             Ly             Lx             Lz            v_J2        CellAlpha       CellBeta      CellGamma          Xy             Xz             Yz      
     15047   1500           0.19388214    -6.8829372     -6.689055       1500042.7      1499052.1      1501444.2      1499631.8     -270.35696     -217.61489      244.8012       57.479986      40.643239      46.930522      2283.1053      90             90             90             0              0              0            
     15100   1503.6623      0.19435551    -6.8833775     -6.689022       1499683.2      1499659.7      1498846.3      1500543.5     -305.25202      253.34171     -373.70451      57.479986      40.643239      46.930522      1747.1433      90             90             90             0              0              0            
     15200   1506.4137      0.19471113    -6.8837597     -6.6890486      1499908.8      1499412        1501727.9      1498586.6      534.83514     -1400.5057      1864.8532      57.479986      40.643239      46.930522      5013.1496      90             90             90             0              0              0            
     15300   1496.1747      0.1933877     -6.882389      -6.6890013      1500570        1498333.2      1498464.2      1504912.6     -2346.7577      2420.7426     -2731.5965      57.479986      40.643239      46.930522      9946.3677      90             90             90             0              0              0            
     15400   1498.8562      0.1937343     -6.8827209     -6.6889866      1499590.8      1500109.3      1502499.2      1496163.7      2394.4113     -2772.6804      2054.8383      57.479986      40.643239      46.930522      9145.4283      90             90             90             0              0              0            
     15500   1503.8563      0.19438058    -6.8833814     -6.6890008      1499768.4      1499550.2      1496727.1      1503027.7     -1802.6594      556.0875      -1591.6605      57.479986      40.643239      46.930522      6939.5339      90             90             90             0              0              0            
     15600   1504.7634      0.19449784    -6.8834738     -6.688976       1500540.8      1499555.2      1504377.9      1497689.3      1411.1473     -435.95882     -0.60769383     57.479986      40.643239      46.930522      6502.4935      90             90             90             0              0              0            
     15700   1502.1888      0.19416505    -6.8831463     -6.6889812      1500456.5      1500221.8      1499106.9      1502040.6     -199.14641      2609.4928     -1265.8832      57.479986      40.643239      46.930522      5650.9745      90             90             90             0              0              0            
     15800   1512.4241      0.19548801    -6.8844543     -6.6889663      1500291.2      1502643.5      1497414.7      1500815.3      3.0159821      73.270236      114.31747      57.479986      40.643239      46.930522      4602.0778      90             90             90             0              0              0            
     15900   1508.1117      0.19493061    -6.8838553     -6.6889247      1500270.8      1497786        1505224.1      1497802.2     -45.93448       475.83231     -371.8278       57.479986      40.643239      46.930522      7503.7677      90             90             90             0              0              0            
     16000   1507.5071      0.19485247    -6.8837693     -6.6889169      1500173.4      1500941        1496962.7      1502616.4     -583.24836     -610.54918     -583.69389      57.479986      40.643239      46.930522      5334.785       90             90             90             0              0              0            
     16100   1507.5839      0.19486239    -6.8837707     -6.6889083      1499915.9      1499718.1      1504137.2      1495892.5      886.92532      448.72097     -543.74711      57.479986      40.643239      46.930522      7410.8026      90             90             90             0              0              0            
     16200   1513.3924      0.19561316    -6.8845278     -6.6889146      1499906.1      1497760.2      1498941.9      1503016.2     -2347.5393     -757.2328       716.81363      57.479986      40.643239      46.930522      6527.2915      90             90             90             0              0              0            
     16300   1505.9013      0.19464491    -6.8835334     -6.6888885      1499604.8      1501769.4      1498900.4      1498144.4      1666.6432      2216.0512     -478.37347      57.479986      40.643239      46.930522      5892.6665      90             90             90             0              0              0            
     16400   1499.5354      0.19382208    -6.882663      -6.6888409      1499983        1499303.1      1498227.1      1502418.9     -1587.5359     -1235.2652      1269.1844      57.479986      40.643239      46.930522      5584.7551      90             90             90             0              0              0            
     16500   1502.3453      0.19418529    -6.8830246     -6.6888393      1499909        1500419.9      1498670.5      1500636.7     -77.040724     -450.95742     -706.20172      57.479986      40.643239      46.930522      2368.6902      90             90             90             0              0              0            
     16600   1507.068       0.19479571    -6.8836233     -6.6888276      1499749.1      1499793.3      1501847.2      1497606.7      208.02169      1295.6329     -1978.2291      57.479986      40.643239      46.930522      5513.3364      90             90             90             0              0              0            
     16700   1508.9397      0.19503764    -6.8838874     -6.6888498      1499948.3      1499482.9      1498229.5      1502132.4     -636.62003     -3088.4847      1499.1337      57.479986      40.643239      46.930522      6963.1558      90             90             90             0              0              0            
     16800   1497.0565      0.19350168    -6.882288      -6.6887863      1500227.4      1501799.3      1501807        1497075.8      2449.9849      1611.9827     -867.39056      57.479986      40.643239      46.930522      7099.8273      90             90             90             0              0              0            
     16900   1515.8423      0.19592983    -6.8847443     -6.6888145      1499660.7      1498597.9      1495049.5      1505334.6     -2273.1928     -657.57254      676.08755      57.479986      40.643239      46.930522      10002.422      90             90             90             0              0              0            
     17000   1510.7455      0.19527104    -6.8840352     -6.6887642      1499945.3      1500162        1503630.5      1496043.3      1496.9353     -2095.6577      1287.0853      57.479986      40.643239      46.930522      8255.1556      90             90             90             0              0              0            
     17100   1500.3186      0.19392332    -6.8826384     -6.688715       1499741.6      1500587.9      1495057.7      1503579.2     -959.78047     -170.60611      951.17924      57.479986      40.643239      46.930522      7851.0914      90             90             90             0              0              0            
     17200   1496.6829      0.19345338    -6.8821192     -6.6886658      1500036.3      1501373.2      1499568.8      1499167        765.75496      163.41743     -527.89176      57.479986      40.643239      46.930522      2611.0541      90             90             90             0              0              0            
     17300   1497.5898      0.19357061    -6.8822256     -6.688655       1500089.7      1498018.9      1500798.2      1501451.8     -469.25486     -1551.5307      1060.0262      57.479986      40.643239      46.930522      4606.6754      90             90             90             0              0              0            
     17400   1506.012       0.19465921    -6.8833424     -6.6886831      1499923.8      1503591.7      1494802.6      1501377.2      1376.0777      402.84164     -685.35324      57.479986      40.643239      46.930522      8382.5096      90             90             90             0              0              0            
     17500   1507.8236      0.19489338    -6.8835486     -6.6886553      1499943.3      1498366.9      1504232.3      1497230.6      146.77399     -862.6618       1815.2844      57.479986      40.643239      46.930522      7385.2488      90             90             90             0              0              0            
     17600   1499.0473      0.193759      -6.8824147     -6.6886557      1500469        1500937.7      1493974        1506495.4     -599.57736      1637.5076     -1177.742       57.479986      40.643239      46.930522      11461.494      90             90             90             0              0              0            
     17700   1501.637       0.19409373    -6.8827622     -6.6886685      1500337.6      1501464.7      1505088.4      1494459.6      2592.9463      276.70897     -334.07836      57.479986      40.643239      46.930522      10407.706      90             90             90             0              0              0            
     17800   1501.8838      0.19412563    -6.8827949     -6.6886693      1500154        1499010.6      1499722.1      1501729.3     -1023.1335     -573.91571      830.22384      57.479986      40.643239      46.930522      3487.0957      90             90             90             0              0              0            
     17900   1498.8198      0.19372959    -6.8824201     -6.6886905      1499941.5      1500175.2      1499324.3      1500325.1     -579.11477      1442.5925     -1599.1352      57.479986      40.643239      46.930522      3974.303       90             90             90             0              0              0            
     18000   1495.1102      0.1932501     -6.8819049     -6.6886548      1500184.5      1498365.7      1501564.1      1500623.5     -841.31025     -894.29766      293.17713      57.479986      40.643239      46.930522      3589.7911      90             90             90             0              0              0            
     18100   1493.1027      0.19299063    -6.8816548     -6.6886641      1500573.1      1501955.8      1496457.9      1503305.5     -122.56378      1076.5197     -1193.5749      57.479986      40.643239      46.930522      6874.9294      90             90             90             0              0              0            
     18200   1497.796       0.19359727    -6.8822488     -6.6886515      1500010.1      1499556.5      1504061.6      1496412.2      725.93599     -3208.4758      1919.1479      57.479986      40.643239      46.930522      9373.3915      90             90             90             0              0              0            
     18300   1505.6439      0.19461164    -6.8833103     -6.6886986      1499831.2      1500297.9      1496147.2      1503048.6     -1007.1821      129.39438     -1508.8271      57.479986      40.643239      46.930522      6792.3042      90             90             90             0              0              0            
     18400   1500.6137      0.19396146    -6.8826148     -6.6886533      1500046.1      1502228.4      1501069.3      1496840.7      1699.5052     -1062.0012     -3.1862642      57.479986      40.643239      46.930522      6014.57        90             90             90             0              0              0            
     18500   1509.1345      0.19506282    -6.8837248     -6.688662       1500185.3      1496590.8      1502460.4      1501504.8     -1414.9833      827.22669     -412.94874      57.479986      40.643239      46.930522      6190.8654      90             90             90             0              0              0            
     18600   1507.7292      0.19488117    -6.8835105     -6.6886293      1500012.7      1504928.4      1496901.2      1498208.5      1978.248       317.948       -789.90232      57.479986      40.643239      46.930522      8340.6894      90             90             90             0              0              0            
     18700   1504.0807      0.19440959    -6.8830222     -6.6886126      1500231.5      1498069.7      1502327        1500297.8     -475.60831     -1288.078       576.52221      57.479986      40.643239      46.930522      4500.7013      90             90             90             0              0              0            
     18800   1501.205       0.19403789    -6.8826428     -6.6886049      1500419.1      1500759.1      1499944.4      1500553.7     -118.87534      56.915608      108.41544      57.479986      40.643239      46.930522      791.14937      90             90             90             0              0              0            
     18900   1501.4724      0.19407246    -6.8826626     -6.6885901      1500443.3      1501365.3      1499416.1      1500548.3      128.26247      295.71224      342.82807      57.479986      40.643239      46.930522      1881.0704      90             90             90             0              0              0            
     19000   1501.0995      0.19402425    -6.8825725     -6.6885483      1500076.1      1499908.8      1499390.8      1500928.6     -43.916491      826.77633      88.832142      57.479986      40.643239      46.930522      1979.035       90             90             90             0              0              0            
     19100   1513.0827      0.19557313    -6.8841489     -6.6885757      1499948.8      1498951.7      1499967.5      1500927.4     -1053.667       832.9388      -605.23584      57.479986      40.643239      46.930522      3072.3399      90             90             90             0              0              0            
     19200   1499.3911      0.19380344    -6.8822898     -6.6884864      1500387.2      1501777        1500395.3      1498989.2      884.02564     -506.99285     -121.61816      57.479986      40.643239      46.930522      2998.2257      90             90             90             0              0              0            
     19300   1498.4698      0.19368435    -6.8821794     -6.6884951      1500526.8      1501717.4      1499084.4      1500778.7     -342.13808     -923.55629      517.10374      57.479986      40.643239      46.930522      3009.0475      90             90             90             0              0              0            
     19400   1500.9586      0.19400604    -6.8824906     -6.6884845      1500091        1499372.8      1501228.3      1499671.9      239.41973      3792.8451     -2309.2855      57.479986      40.643239      46.930522      7893.3351      90             90             90             0              0              0            
     19500   1503.1811      0.19429331    -6.8827841     -6.6884908      1499941.5      1499633.7      1499228.3      1500962.4     -337.44873     -3849.328       1888.3267      57.479986      40.643239      46.930522      7613.1169      90             90             90             0              0              0            
     19600   1506.7106      0.19474952    -6.8832109     -6.6884614      1500305.2      1500821.5      1500192.6      1499901.6      738.00705      3597.954      -2830.7904      57.479986      40.643239      46.930522      8072.9823      90             90             90             0              0              0            
     19700   1501.8151      0.19411675    -6.8825917     -6.6884749      1499817.1      1498470.3      1500454.1      1500526.9     -1477.6064     -1706.0713      270.71467      57.479986      40.643239      46.930522      4425.7352      90             90             90             0              0              0            
     19800   1518.3829      0.19625822    -6.8847575     -6.6884993      1500049.4      1500034.4      1498632.1      1501481.7     -132.21666      1374.5353     -830.50575      57.479986      40.643239      46.930522      3725.6321      90             90             90             0              0              0            
     19900   1505.1644      0.19454966    -6.883043      -6.6884934      1499915.7      1500479.5      1499691.9      1499575.8     -780.16069      785.98937     -869.16029      57.479986      40.643239      46.930522      2582.7823      90             90             90             0              0              0            
     20000   1502.2081      0.19416754    -6.882596      -6.6884285      1500710.6      1501264.8      1498050.1      1502817       -82.878496     -3591.0873      1309.9839      57.479986      40.643239      46.930522      7847.9111      90             90             90             0              0              0            
     20100   1508.6619      0.19500173    -6.8834314     -6.6884296      1499907.1      1502063.6      1502317.2      1495340.5      2209.1991      3806.2753     -2643.9345      57.479986      40.643239      46.930522      11226.968      90             90             90             0              0              0            
[...]
    410900   2805.5104      0.36262557    -6.6965077     -6.3338821      1611418.2      1571054        1625172.2      1638028.5     -186943.82      2806.6998     -2709.6368      57.479986      40.643239      46.930522      329665.68      90             90             87.64704       2.3618526      0              0            
    411000   2812.0277      0.36346796    -6.6965691     -6.3331011      1611479.1      1570990.8      1617452.1      1645994.3     -190429.97     -2175.508       2173.7471      57.479986      40.643239      46.930522      336330.96      90             90             87.646468      2.3624274      0              0            
    411100   2820.6379      0.36458087    -6.6967728     -6.3321919      1610522.2      1565238.3      1627601.9      1638726.2     -188359.63      2184.9507     -2520.7309      57.479986      40.643239      46.930522      333433.89      90             90             87.645896      2.3630022      0              0            
    411200   2807.0147      0.36282001    -6.6940304     -6.3312104      1614083.8      1575431        1617526.9      1649293.5     -191915.25     -2807.7702      1693.4786      57.479986      40.643239      46.930522      338592.79      90             90             87.645324      2.363577       0              0            
    411300   2815.6874      0.36394099    -6.694604      -6.330663       1610998.7      1572659.5      1622367.6      1637969.2     -184073.68      155.76976     -98.929597      57.479986      40.643239      46.930522      324251.91      90             90             87.644752      2.3641518      0              0            
    411400   2816.2448      0.36401304    -6.6939819     -6.3299688      1613063.4      1569296.1      1620857.4      1649036.7     -191324.18      2826.7361     -974.42153      57.479986      40.643239      46.930522      338743.65      90             90             87.64418       2.3647266      0              0            
    411500   2834.1528      0.36632774    -6.6955164     -6.3291887      1608025.8      1577239        1614333.3      1632505.1     -183782.81     -2486.4195      2527.857       57.479986      40.643239      46.930522      322096.8       90             90             87.643608      2.3653014      0              0            
    411600   2828.4843      0.36559506    -6.6936384     -6.3280434      1615236.6      1571647.7      1623952.2      1650110       -191805.17      9501.9314     -6256.4576      57.479986      40.643239      46.930522      339917.81      90             90             87.643036      2.3658762      0              0            
    411700   2840.2506      0.36711591    -6.6944538     -6.3273379      1612266.3      1577766.1      1618787.9      1640244.8     -184939.61     -5570.5138      6357.6911      57.479986      40.643239      46.930522      325339.39      90             90             87.642464      2.366451       0              0            
    411800   2843.5379      0.36754081    -6.6942393     -6.3266985      1611287.2      1572968.9      1617185.9      1643706.7     -187754.06      3352.7692     -4515.5927      57.479986      40.643239      46.930522      331180.95      90             90             87.641892      2.3670258      0              0            
    411900   2843.3188      0.36751248    -6.6933754     -6.3258629      1610922.4      1570874.7      1621918.4      1639974.1     -186369.87     -7653.9202      5193.2411      57.479986      40.643239      46.930522      329106.27      90             90             87.64132       2.3676006      0              0            
    412000   2849.9647      0.3683715     -6.6933648     -6.3249933      1613079.9      1571505.4      1619820.6      1647913.6     -190229.82     -248.71296     -909.11307      57.479986      40.643239      46.930522      336222.72      90             90             87.640748      2.3681754      0              0            
    412100   2850.6304      0.36845755    -6.6926415     -6.324184       1615661.3      1574952.1      1627832.8      1644198.9     -187861.55     -2190.0091      2128.5957      57.479986      40.643239      46.930522      331411.43      90             90             87.640176      2.3687502      0              0            
    412200   2854.6185      0.36897303    -6.6923621     -6.323389       1613227        1571424        1618526.7      1649730.3     -191089.53      1546.8599     -1342.7392      57.479986      40.643239      46.930522      337964.98      90             90             87.639604      2.369325       0              0            
    412300   2867.6514      0.37065759    -6.6932177     -6.3225601      1612397.5      1574957.6      1620986.2      1641248.7     -185828.32     -714.88423      2738.7621      57.479986      40.643239      46.930522      327234.44      90             90             87.639032      2.3698998      0              0            
    412400   2850.3461      0.3684208     -6.6899076     -6.3214868      1615795        1575235        1625566.7      1646583.4     -188395         236.71998      1261.7622      57.479986      40.643239      46.930522      332439.1       90             90             87.63846       2.3704746      0              0            
    412500   2839.6988      0.36704459    -6.6876567     -6.3206121      1614306.9      1574368        1618548        1650004.6     -189069.33      19.674424      147.64019      57.479986      40.643239      46.930522      334025.21      90             90             87.637888      2.3710494      0              0            
    412600   2850.937       0.36849718    -6.6883208     -6.3198236      1614435.8      1576423.5      1619283.7      1647600.3     -188714.87     -575.07818     -904.70575      57.479986      40.643239      46.930522      332709.83      90             90             87.637316      2.3716242      0              0            
    412700   2863.0723      0.37006572    -6.6888752     -6.3188095      1615395.3      1574434.3      1626231.4      1645520.3     -188358.8       3600.1434     -1067.4237      57.479986      40.643239      46.930522      332465.82      90             90             87.636744      2.372199       0              0            
    412800   2846.6328      0.36794084    -6.6861089     -6.3181681      1617790        1574606.1      1628109.2      1650654.8     -190465.59      200.60652      1150.6134      57.479986      40.643239      46.930522      336767.96      90             90             87.636172      2.3727738      0              0            
    412900   2867.7912      0.37067567    -6.6878107     -6.317135       1614188.1      1576063.2      1625015.4      1641485.7     -186957.09      3039.8778     -3077.1617      57.479986      40.643239      46.930522      329224.58      90             90             87.6356        2.3733486      0              0            
    413000   2880.4788      0.3723156     -6.68848       -6.3161644      1614952.8      1571799.5      1619642.2      1653416.7     -190792.86     -3703.8118      1703.5355      57.479986      40.643239      46.930522      338084.48      90             90             87.635028      2.3739234      0              0            
    413100   2879.5023      0.37218938    -6.6873795     -6.3151901      1617239.4      1579981.8      1624605.6      1647130.9     -185522.28     -92.988587      450.59757      57.479986      40.643239      46.930522      326741.53      90             90             87.634456      2.3744982      0              0            
    413200   2887.5935      0.37323521    -6.6875325     -6.3142973      1616406.5      1574518.3      1622933.5      1651767.7     -190669.67      3415.3125     -422.55687      57.479986      40.643239      46.930522      337152.42      90             90             87.633884      2.375073       0              0            
    413300   2893.5292      0.37400242    -6.6872069     -6.3132044      1619544.3      1577599.9      1633292.4      1647740.4     -187936.05     -7662.4504      4825.1962      57.479986      40.643239      46.930522      332145.91      90             90             87.633312      2.3756478      0              0            
    413400   2888.5322      0.37335653    -6.6858025     -6.3124459      1618810.1      1575309.5      1628749.6      1652371.4     -191525.07      3045.4465     -2139.7277      57.479986      40.643239      46.930522      338767.34      90             90             87.63274       2.3762226      0              0            
    413500   2904.9007      0.37547223    -6.6869842     -6.311512       1617750.6      1581948.4      1621895.3      1649408.1     -186514.3      -416.5372      -2062.0295      57.479986      40.643239      46.930522      328371.42      90             90             87.632168      2.3767974      0              0            
    413600   2898.2802      0.37461651    -6.6853092     -6.3106926      1618072.1      1577412.5      1624910.6      1651893.2     -190225.48     -8643.9276      5088.4661      57.479986      40.643239      46.930522      336340.28      90             90             87.631596      2.3773722      0              0            
    413700   2904.3045      0.37539519    -6.6853217     -6.3099265      1616639.6      1580254.7      1627796.2      1641868       -186414.26      5333.5828     -2593.5772      57.479986      40.643239      46.930522      327846.84      90             90             87.631024      2.377947       0              0            
    413800   2906.0548      0.37562141    -6.6844835     -6.3088621      1620029.3      1582376.1      1628903.6      1648808.2     -190625.81     -2800.5189      4398.0055      57.479986      40.643239      46.930522      335534.31      90             90             87.630452      2.3785218      0              0            
    413900   2891.7367      0.37377074    -6.6818503     -6.3080796      1619597.4      1572575.6      1634211.8      1652005       -191444.75      2323.0749     -1033.6055      57.479986      40.643239      46.930522      339389.16      90             90             87.629881      2.3790966      0              0            
    414000   2906.2314      0.37564424    -6.6829133     -6.3072691      1618669.3      1582808.9      1621985.5      1651213.4     -188638.85     -2266.7616      1451.1923      57.479986      40.643239      46.930522      332129.04      90             90             87.629309      2.3796714      0              0            
    414100   2910.4097      0.37618431    -6.682469      -6.3062847      1622453.9      1581568.3      1630076.9      1655716.7     -189968.95      1558.4379     -4128.9294      57.479986      40.643239      46.930522      335525.37      90             90             87.628737      2.3802462      0              0            
    414200   2905.8026      0.37558881    -6.6807043     -6.3051155      1620909.3      1583653.8      1630660.6      1648413.4     -186799.22     -206.5317      -2467.1471      57.479986      40.643239      46.930522      328724.13      90             90             87.628165      2.380821       0              0            
    414300   2896.5837      0.37439723    -6.6788432     -6.3044459      1621397.7      1582421.1      1625848.6      1655923.4     -191082.14     -1117.4142      2905.9222      57.479986      40.643239      46.930522      337139.07      90             90             87.627593      2.3813958      0              0            
    414400   2899.5918      0.37478603    -6.6782405     -6.3034544      1621008.1      1578043        1626991.6      1657989.8     -191191.91      573.81596     -89.922844      57.479986      40.643239      46.930522      338434.97      90             90             87.627021      2.3819706      0              0            
    414500   2934.2238      0.37926239    -6.6815673     -6.3023049      1621318.4      1581270.2      1627439.8      1655245.3     -190868.45      3451.1046     -2317.0082      57.479986      40.643239      46.930522      336946.1       90             90             87.626449      2.3825454      0              0            
    414600   2932.2672      0.37900948    -6.6802776     -6.3012681      1622905.8      1585547.1      1632011.2      1651159.1     -187321.84     -1401.1892      455.18537      57.479986      40.643239      46.930522      329681.93      90             90             87.625877      2.3831202      0              0            
    414700   2931.8569      0.37895645    -6.6794207     -6.3004642      1621862.5      1574022.5      1634864        1656701       -191944.69     -3014.2337      2396.4564      57.479986      40.643239      46.930522      340705.02      90             90             87.625305      2.383695       0              0            
    414800   2948.5217      0.38111046    -6.6808036     -6.2996932      1622260.6      1584201.5      1629162.2      1653418.1     -188333.68     -2409.7062      2290.273       57.479986      40.643239      46.930522      331876.87      90             90             87.624733      2.3842698      0              0            
    414900   2932.1025      0.3789882     -6.6776097     -6.2986215      1622179        1584574.8      1627205.3      1654756.8     -187269.37     -2483.0632     -3493.1857      57.479986      40.643239      46.930522      330175         90             90             87.624161      2.3848446      0              0            
    415000   2951.4832      0.38149324    -6.6791347     -6.2976414      1625003.9      1582349.4      1637334        1655328.2     -186602.8       2039.7651     -1338.7333      57.479986      40.643239      46.930522      329872.96      90             90             87.623589      2.3854194      0              0            
    415100   2971.7699      0.3841154     -6.6808535     -6.2967381      1624337.5      1582537.8      1632865        1657609.8     -192332.65      2389.2839     -2898.6423      57.479986      40.643239      46.930522      339718.03      90             90             87.623017      2.3859942      0              0            
    415200   2963.0691      0.38299078    -6.678691      -6.2957002      1624986.6      1590775.9      1626629.7      1657554.3     -186158.98     -3275.737       4238.9642      57.479986      40.643239      46.930522      327722.73      90             90             87.622445      2.386569       0              0            
    415300   2960.5223      0.38266159    -6.6774174     -6.2947558      1627311.6      1584271.7      1636794.7      1660868.4     -189275.92      2797.756      -4310.6688      57.479986      40.643239      46.930522      334899.97      90             90             87.621873      2.3871438      0              0            
    415400   2958.4391      0.38239233    -6.6763115     -6.2939192      1626268.7      1584572.9      1637391.1      1656842.2     -190678.4      -6435.541       2221.1277      57.479986      40.643239      46.930522      336762.94      90             90             87.621301      2.3877186      0              0            
    415500   2977.8783      0.38490494    -6.677932      -6.2930271      1627346.6      1588130.4      1637352.8      1656556.6     -190460.53      2431.0659     -314.61472      57.479986      40.643239      46.930522      335530.27      90             90             87.620729      2.3882934      0              0            
    415600   2959.8058      0.38256899    -6.6742668     -6.2916978      1624322.1      1582735.1      1631054.3      1659176.8     -191558.77      679.37501     -859.61699      57.479986      40.643239      46.930522      338485.41      90             90             87.620157      2.3888682      0              0            
    415700   2985.4461      0.38588311    -6.6766567     -6.2907735      1629185        1593800.3      1639823.7      1653931.1     -185254.19      4041.0917     -2338.0391      57.479986      40.643239      46.930522      325559.79      90             90             87.619585      2.389443       0              0            
    415800   2988.676       0.38630059    -6.676149      -6.2898484      1625641.6      1579255.3      1638038.4      1659631.2     -192964.1      -2126.605       146.40893      57.479986      40.643239      46.930522      341921.13      90             90             87.619013      2.3900178      0              0            
    415900   2985.7596      0.38592364    -6.6749595     -6.2890358      1626564.2      1591381.4      1626660.6      1661650.4     -188923.8       4600.7848     -3434.4592      57.479986      40.643239      46.930522      332984.71      90             90             87.618441      2.3905926      0              0            
    416000   2983.8035      0.3856708     -6.6735975     -6.2879267      1626932.8      1581758.5      1640960.9      1658079.1     -189143.95     -2741.9985      822.88707      57.479986      40.643239      46.930522      334906.38      90             90             87.617869      2.3911674      0              0            
    416100   2985.0979      0.3858381     -6.6726129     -6.2867748      1627147.3      1587536.7      1632127.9      1661777.3     -189993.06     -1636.1367      3747.504       57.479986      40.643239      46.930522      335457.62      90             90             87.617297      2.3917422      0              0            
    416200   2988.4083      0.386266      -6.6721268     -6.2858608      1627070.9      1590193.9      1638802.5      1652216.3     -184766.69      4980.8445     -7477.1863      57.479986      40.643239      46.930522      325350.72      90             90             87.616725      2.392317       0              0            
    416300   2997.607       0.38745496    -6.6722306     -6.2847757      1630835        1582535.8      1636965.6      1673003.6     -197919.66     -75.018272      1793.9022      57.479986      40.643239      46.930522      351779.94      90             90             87.616153      2.3928918      0              0            
Fix halt condition for fix-id STOP met on step 416400 with value 3015.5390831847258
    416400   3015.5391      0.38977278    -6.6737902     -6.2840175      1626171.7      1591350.4      1634683.2      1652481.6     -185493.17      135.52429     -1323.0324      57.479986      40.643239      46.930522      325874.55      90             90             87.615581      2.3934666      0              0            
Loop time of 3121.12 on 6 procs for 416400 steps with 24000 atoms

Performance: 11.527 ns/day, 2.082 hours/ns, 133.414 timesteps/s, 3.202 Matom-step/s
99.1% CPU use with 6 MPI tasks x 1 OpenMP threads

MPI task timing breakdown:
Section |  min time  |  avg time  |  max time  |%varavg| %total
---------------------------------------------------------------
Pair    | 2906.9     | 2921.3     | 2935.5     |  18.9 | 93.60
Neigh   | 0.047786   | 0.050482   | 0.052298   |   0.8 |  0.00
Comm    | 153.73     | 168.34     | 183.63     |  79.9 |  5.39
Output  | 0.8514     | 0.89535    | 0.98776    |   4.7 |  0.03
Modify  | 16.745     | 16.865     | 16.965     |   1.6 |  0.54
Other   |            | 13.64      |            |       |  0.44

Nlocal:           4000 ave        4017 max        3972 min
Histogram: 1 0 1 0 0 0 1 0 0 3
Nghost:        5438.67 ave        5466 max        5422 min
Histogram: 1 2 1 0 0 0 1 0 0 1
Neighs:              0 ave           0 max           0 min
Histogram: 6 0 0 0 0 0 0 0 0 0
FullNghs:       245585 ave      246590 max      243929 min
Histogram: 2 0 0 0 0 0 0 1 0 3

Total # of neighbors = 1473510
Ave neighs/atom = 61.39625
Neighbor list builds = 8
Dangerous builds = 0
undump OUT1
unfix DEFORM_FIX

write_data data_perfect.final
System init for write_data ...
### FIN
Total wall time: 0:55:08
