LAMMPS (22 Jul 2025 - Update 3)
OMP_NUM_THREADS environment is not set. Defaulting to 1 thread.
  using 1 OpenMP thread(s) per MPI task
# Corte de SIGNO OPUESTO sobre la muestra CON falla (111), caja ROTADA.
# IDENTICO a in.shear_SF (condiciones del director: 150 GPa, 1500 K, NVE) salvo
# erate NEGATIVO. Las parciales de Shockley son sensibles al sentido del corte:
# un signo ensancha la falla (intrinseca->extrinseca), el otro la cierra.
# Comparar la curva tau-gamma de este run vs in.shear_SF revela esa asimetria.

units		metal
dimension	3
boundary	p p p
atom_style	atomic

read_data SampleSTF_New_4
Reading data file ...
  triclinic box = (0 1.0171069 0) to (43.723392 60.817107 50.487424) with tilt (0 0 0)
  1 by 3 by 2 MPI processor grid
  reading atoms ...
  23200 atoms
  read_data CPU = 0.064 seconds
set group all type 1
Setting atom values ...
  23200 settings made for type
group C type 1
23200 atoms in group C
mass 1 12.01

pair_style tersoff
pair_coeff * * ./SiC_1994.tersoff C C C C C C
Reading tersoff potential file ./SiC_1994.tersoff with DATE: 2011-05-03

thermo 100
write_data data_SFneg.ini
System init for write_data ...
Neighbor list info ...
  update: every = 1 steps, delay = 0 steps, check = yes
  max neighbors/atom: 2000, page size: 100000
  master list distance cutoff = 4.1
  ghost atom cutoff = 4.1
  binsize = 2.05, bins = 22 30 25
  1 neighbor lists, perpetual/occasional/extra = 1 0 0
  (1) pair tersoff, perpetual
      attributes: full, newton on
      pair build: full/bin/atomonly
      stencil: full/bin/3d
      bin: standard
fix 1 all box/relax iso 0.0 vmax 0.001
minimize 1.0e-10 1.0e-12 10000 20000
WARNING: Energy due to 1 extra global DOFs will be included in minimizer energies
 (src/min.cpp:222)
Per MPI rank memory allocation (min/avg/max) = 4.766 | 4.776 | 4.786 Mbytes
   Step          Temp          E_pair         E_mol          TotEng         Press          Volume    
         0   0             -173343.36      0             -173343.36     -52396.837      132007.39    
        17   0             -173372.59      0             -173372.59      8.4391172      130434.25    
Loop time of 0.269641 on 6 procs for 17 steps with 23200 atoms

99.1% CPU use with 6 MPI tasks x 1 OpenMP threads

Minimization stats:
  Stopping criterion = energy tolerance
  Energy initial, next-to-last, final = 
     -173343.355886491  -173372.587760505  -173372.587777174
  Force two-norm initial, final = 12951.341 4.6947704
  Force max component initial, final = 12951.325 2.0693554
  Final line search alpha, max atom move = 0.00011915305 0.00024657
  Iterations, force evaluations = 17 31

MPI task timing breakdown:
Section |  min time  |  avg time  |  max time  |%varavg| %total
---------------------------------------------------------------
Pair    | 0.18676    | 0.21078    | 0.24687    |   4.7 | 78.17
Neigh   | 0          | 0          | 0          |   0.0 |  0.00
Comm    | 0.016609   | 0.052649   | 0.076543   |   9.3 | 19.53
Output  | 0          | 0          | 0          |   0.0 |  0.00
Modify  | 0          | 0          | 0          |   0.0 |  0.00
Other   |            | 0.006209   |            |       |  2.30

Nlocal:        3866.67 ave        4200 max        3610 min
Histogram: 2 0 0 1 0 0 2 0 0 1
Nghost:           4881 ave        5155 max        4654 min
Histogram: 2 0 1 0 0 0 0 2 0 1
Neighs:              0 ave           0 max           0 min
Histogram: 6 0 0 0 0 0 0 0 0 0
FullNghs:       178133 ave      193200 max      166060 min
Histogram: 2 0 0 1 0 0 2 0 0 1

Total # of neighbors = 1068800
Ave neighs/atom = 46.068966
Neighbor list builds = 0
Dangerous builds = 0
unfix 1
min_style fire
minimize 1.0e-10 1.0e-12 10000 20000
  Parameters for fire:
    dmax  delaystep dtgrow dtshrink alpha0 alphashrink tmax tmin   integrator   halfstepback   abcfire  
     0.1     20      1.1     0.5     0.25     0.99      10  0.02 eulerimplicit      yes          no     
Per MPI rank memory allocation (min/avg/max) = 3.643 | 3.652 | 3.661 Mbytes
   Step          Temp          E_pair         E_mol          TotEng         Press     
        17   0             -173372.59      0             -173372.59      8.4391172    
       100   0.00097186748 -173373.27      0             -173373.27     -8.9433107    
       173   4.5543314e-05 -173373.28      0             -173373.28     -9.1157058    
Loop time of 1.32303 on 6 procs for 156 steps with 23200 atoms

99.1% CPU use with 6 MPI tasks x 1 OpenMP threads

Minimization stats:
  Stopping criterion = energy tolerance
  Energy initial, next-to-last, final = 
     -173372.587777174  -173373.281541334  -173373.281558068
  Force two-norm initial, final = 4.2140999 0.028396582
  Force max component initial, final = 0.10195882 0.00026493193
  Final line search alpha, max atom move = 0 0
  Iterations, force evaluations = 156 163

MPI task timing breakdown:
Section |  min time  |  avg time  |  max time  |%varavg| %total
---------------------------------------------------------------
Pair    | 1.0363     | 1.0866     | 1.1694     |   4.7 | 82.13
Neigh   | 0          | 0          | 0          |   0.0 |  0.00
Comm    | 0.13851    | 0.22126    | 0.27116    |  10.4 | 16.72
Output  | 3.7341e-05 | 3.9757e-05 | 4.8762e-05 |   0.0 |  0.00
Modify  | 0          | 0          | 0          |   0.0 |  0.00
Other   |            | 0.01516    |            |       |  1.15

Nlocal:        3866.67 ave        4000 max        3800 min
Histogram: 4 0 0 0 0 0 0 0 0 2
Nghost:           4881 ave        4955 max        4844 min
Histogram: 4 0 0 0 0 0 0 0 0 2
Neighs:              0 ave           0 max           0 min
Histogram: 6 0 0 0 0 0 0 0 0 0
FullNghs:       178133 ave      184000 max      174800 min
Histogram: 4 0 0 0 0 0 0 0 0 2

Total # of neighbors = 1068800
Ave neighs/atom = 46.068966
Neighbor list builds = 0
Dangerous builds = 0
min_style cg
fix BoxRelax all box/relax aniso 0.0 vmax 0.001
minimize 1.0e-7 1.0e-8 5000 10000
WARNING: Energy due to 3 extra global DOFs will be included in minimizer energies
 (src/min.cpp:222)
Per MPI rank memory allocation (min/avg/max) = 4.768 | 4.777 | 4.786 Mbytes
   Step          Temp          E_pair         E_mol          TotEng         Press          Volume    
       173   4.5543314e-05 -173373.28      0             -173373.28     -9.1157058      130434.25    
       175   4.5543314e-05 -173373.32      0             -173373.32     -13.770482      130434.37    
Loop time of 0.0333428 on 6 procs for 2 steps with 23200 atoms

98.5% CPU use with 6 MPI tasks x 1 OpenMP threads

Minimization stats:
  Stopping criterion = energy tolerance
  Energy initial, next-to-last, final = 
     -173373.281558068  -173373.324772512  -173373.324780773
  Force two-norm initial, final = 276.92115 3.6642519
  Force max component initial, final = 226.84495 2.2562223
  Final line search alpha, max atom move = 0.0027770953 0.0062657444
  Iterations, force evaluations = 2 4

MPI task timing breakdown:
Section |  min time  |  avg time  |  max time  |%varavg| %total
---------------------------------------------------------------
Pair    | 0.029799   | 0.030674   | 0.031693   |   0.4 | 91.99
Neigh   | 0          | 0          | 0          |   0.0 |  0.00
Comm    | 0.00089411 | 0.001892   | 0.0027464  |   1.6 |  5.67
Output  | 0          | 0          | 0          |   0.0 |  0.00
Modify  | 0          | 0          | 0          |   0.0 |  0.00
Other   |            | 0.0007772  |            |       |  2.33

Nlocal:        3866.67 ave        4000 max        3800 min
Histogram: 4 0 0 0 0 0 0 0 0 2
Nghost:           4881 ave        4955 max        4844 min
Histogram: 4 0 0 0 0 0 0 0 0 2
Neighs:              0 ave           0 max           0 min
Histogram: 6 0 0 0 0 0 0 0 0 0
FullNghs:       178133 ave      184000 max      174800 min
Histogram: 4 0 0 0 0 0 0 0 0 2

Total # of neighbors = 1068800
Ave neighs/atom = 46.068966
Neighbor list builds = 0
Dangerous builds = 0
unfix BoxRelax
write_data data_SFneg.inicio
System init for write_data ...
thermo 1000

velocity	all create 300.0 482748 dist gaussian
compute 1 all ke/atom
compute 3 all pe/atom
compute 4 all stress/atom NULL
variable J2 equal sqrt(0.5*((pxx-pyy)^2+(pxx-pzz)^2+(pzz-pyy)^2+6*(pxy^2+pxz^2+pyz^2)))

thermo 100
thermo_style custom step temp ke pe etotal press pxx pyy pzz pxy pxz pyz ly lx lz v_J2 cellalpha cellbeta cellgamma xy xz yz
thermo_modify	lost warn norm yes

#(6) Equilibrado: rampa a 1500 K y 150 GPa, luego hold (mismas condiciones)
fix upTemp all  temp/rescale 1 300.0 1500.0 1.0 1.0
fix upPress all nph aniso 0.0 1500000.0 0.30 drag 1.50
run		5000
Per MPI rank memory allocation (min/avg/max) = 4.518 | 4.527 | 4.536 Mbytes
   Step          Temp          KinEng         PotEng         TotEng         Press           Pxx            Pyy            Pzz            Pxy            Pxz            Pyz             Ly             Lx             Lz            v_J2        CellAlpha       CellBeta      CellGamma          Xy             Xz             Yz      
       175   300            0.038776372   -7.4729881     -7.4342118      7353.0849      7411.3334      7278.7045      7369.2168     -55.541657     -91.884864     -102.01899      59.546193      43.554631      50.292556      282.10832      90             90             90             0              0              0            
       200   306            0.039551899   -7.4349322     -7.3953803     -13879.566     -13687.556     -14160.331     -13790.81       312.25689      188.44431     -198.33057      59.687397      43.664143      50.416542      838.10115      90             90             90             0              0              0            
       300   330.88695      0.042768652   -7.4282294     -7.3854608      39329.664      38644.735      39730.173      39614.085     -248.84743     -164.20573      126.90607      59.464443      43.498906      50.225472      1175.0011      90             90             90             0              0              0            
       400   354            0.045756119   -7.4254293     -7.3796731      68819.452      68789.193      68341.514      69327.65       88.580895      276.40575     -151.94486      59.343025      43.410217      50.123012      1026.3576      90             90             90             0              0              0            
       500   378.28842      0.048895508   -7.4212373     -7.3723418      96855.814      96357.216      98057.523      96152.702      36.094288     -400.51937      39.593642      59.230328      43.32798       50.033091      1941.7679      90             90             90             0              0              0            
       600   402.3511       0.05200572    -7.4159809     -7.3639752      127685.99      128184.73      127137.66      127735.59      84.181995      355.20099     -153.67811      59.111079      43.242421      49.929974      1139.4831      90             90             90             0              0              0            
       700   426.73857      0.055157912   -7.4113081     -7.3561502      157418.18      156876.81      158610.21      156767.5       139.67322     -361.68302      195.34708      58.998343      43.160244      49.835287      1942.0509      90             90             90             0              0              0            
       800   449.64472      0.058118636   -7.4045442     -7.3464256      187656.52      187365.86      187372.29      188231.41     -397.7596       981.38979     -220.15992      58.891792      43.076314      49.742385      2062.3008      90             90             90             0              0              0            
       900   474            0.061266668   -7.3972384     -7.3359718      217761.92      219735.1       216563.91      216986.76      820.47897     -215.15741      264.965        58.782816      42.997308      49.652181      3356.0979      90             90             90             0              0              0            
      1000   498            0.064368778   -7.3912441     -7.3268753      247476.47      246237.08      248708.57      247483.76     -543.84569     -113.77881      37.769389      58.675447      42.924224      49.561018      2347.71        90             90             90             0              0              0            
      1100   522            0.067470887   -7.3831932     -7.3157223      278447.14      276802.26      279629.47      278909.71     -788.58094      446.91774     -247.28893      58.572423      42.845318      49.470992      3020.6789      90             90             90             0              0              0            
      1200   545.15561      0.070463856   -7.3747937     -7.3043298      306597.71      306573.77      306565.88      306653.49      58.982853     -1181.5066      388.09882      58.477437      42.775583      49.394365      2158.059       90             90             90             0              0              0            
      1300   569.57148      0.073619719   -7.36683       -7.2932103      338826.6       340530.2       336366.13      339583.49      507.50955     -828.28289      454.42853      58.371915      42.69777       49.302249      4212.3585      90             90             90             0              0              0            
      1400   593.94757      0.076770439   -7.3605281     -7.2837577      366487.25      367869.56      365259.66      366332.53      145.04443      1350.7027     -753.52041      58.279121      42.63191       49.229537      3521.6796      90             90             90             0              0              0            
      1500   618            0.079879326   -7.3512344     -7.271355       398281.32      397705.34      399147.47      397991.16     -522.33948      1230.4062     -485.72578      58.176516      42.557062      49.146463      2795.9348      90             90             90             0              0              0            
      1600   642            0.082981436   -7.3403971     -7.2574157      427133.69      425185.29      428542.39      427673.39     -1014.2743     -1002.3756      842.04755      58.091687      42.496127      49.066054      4163.6072      90             90             90             0              0              0            
      1700   666.50343      0.086148616   -7.3332047     -7.2470561      457468.36      456059.79      458166.35      458178.95     -418.14757     -1885.6788      1020.0971      58.000936      42.425555      48.985867      4333.3572      90             90             90             0              0              0            
      1800   690            0.089185656   -7.3242897     -7.235104       488307.99      487671.61      488843.53      488408.83     -792.65582     -885.73036      261.14803      57.910706      42.355966      48.909187      2344.3519      90             90             90             0              0              0            
      1900   714.23888      0.092318642   -7.3138864     -7.2215678      515971.43      514059.79      516178.15      517676.36     -263.00377      748.32538     -145.76163      57.828923      42.303024      48.83551       3443.411       90             90             90             0              0              0            
      2000   738.78496      0.095491334   -7.3046266     -7.2091352      548080.18      546024.01      549084.95      549131.57      102.66826      1109.8432     -1266.4118      57.730913      42.232719      48.760607      4248.8232      90             90             90             0              0              0            
      2100   762            0.098491985   -7.2916078     -7.1931158      577448.51      577727.04      578352.29      576266.19      306.30958      1122.578      -779.02903      57.64978       42.169628      48.695613      3053.0522      90             90             90             0              0              0            
      2200   786            0.10159409    -7.2824948     -7.1809007      607677.03      606841.15      607995.95      608193.98      161.71692      1012.2135     -1025.6017      57.570958      42.108399      48.618572      2812.3356      90             90             90             0              0              0            
      2300   810            0.1046962     -7.2717273     -7.1670311      635982.45      635720.45      638047.25      634179.63      328.62708      712.16417     -1065.9051      57.489591      42.049107      48.558974      4077.6563      90             90             90             0              0              0            
      2400   834            0.10779831    -7.2592855     -7.1514872      669901.13      669668.09      670616.01      669419.3       121.47078      1081.3778     -756.27829      57.393622      41.98231       48.482681      2542.5494      90             90             90             0              0              0            
      2500   858.98619      0.11102789    -7.247902      -7.1368741      694446.84      694358.07      694696.21      694286.23     -364.06061      2339.8861     -1680.6215      57.331183      41.935916      48.42996       5043.8163      90             90             90             0              0              0            
      2600   882            0.11400253    -7.2392929     -7.1252903      727621.95      726620.65      728672.84      727572.37     -543.02477      933.7908      -751.38343      57.240256      41.870779      48.351709      2891.0898      90             90             90             0              0              0            
      2700   906.11327      0.11711928    -7.2244739     -7.1073546      756384.37      755561.53      756840.94      756750.64     -149.24739      1343.4453     -690.27235      57.170763      41.820731      48.288839      2905.2197      90             90             90             0              0              0            
      2800   930            0.12020675    -7.2110504     -7.0908437      789810.92      791101.58      790202.34      788128.83      1477.3544      1145.7235     -205.70089      57.085633      41.758765      48.217349      4193.493       90             90             90             0              0              0            
      2900   954            0.12330886    -7.1995898     -7.076281       818543.03      818278.43      818130.49      819220.18      824.34052      560.60203      45.803839      57.018133      41.706869      48.153696      2008.9373      90             90             90             0              0              0            
      3000   978            0.12641097    -7.1891946     -7.0627836      845242.15      844496.36      844892.76      846337.34     -133.42585     -954.27878      898.06078      56.948095      41.659313      48.103039      2832.2166      90             90             90             0              0              0            
      3100   1002           0.12951308    -7.1745303     -7.0450172      878012.82      876110.49      877722.08      880205.9      -1150.4176     -1171.7555      1300.9117      56.870158      41.604428      48.030347      5092.7426      90             90             90             0              0              0            
      3200   1026.7783      0.13271579    -7.1625091     -7.0297933      908323.02      907837.06      910005.08      907126.92     -5.6103139      383.55684      238.79682      56.796931      41.546915      47.974662      2712.3243      90             90             90             0              0              0            
      3300   1050           0.1357173     -7.1482194     -7.0125021      939856.28      940787.67      939824.58      938956.58      401.76655      96.552679      79.958713      56.721869      41.494315      47.90818       1745.9475      90             90             90             0              0              0            
      3400   1074           0.13881941    -7.1353226     -6.9965032      970107.7       969357.75      969395.83      971569.51     -1055.3306      1511.7797     -788.11629      56.659817      41.439278      47.848366      4107.3201      90             90             90             0              0              0            
      3500   1098           0.14192152    -7.1252038     -6.9832823      997090.47      997183.3       997314.91      996773.2       398.00097      1513.2962     -550.98007      56.592885      41.388384      47.804328      2914.7251      90             90             90             0              0              0            
      3600   1121.5795      0.14496928    -7.1128055     -6.9678362      1024420.3      1027985.9      1021843.3      1023431.6     -176.90059      130.65463      398.00124      56.530749      41.346636      47.750051      5578.4049      90             90             90             0              0              0            
      3700   1146           0.14812574    -7.0977432     -6.9496175      1057052.8      1056324        1059168.1      1055666.3     -1287.3536     -882.78551      538.11699      56.453203      41.298115      47.686379      4309.4017      90             90             90             0              0              0            
      3800   1170           0.15122785    -7.082956      -6.9317282      1087552.1      1087882.8      1087857.3      1086916.1     -109.3826      -329.62238     -474.10773      56.384133      41.248066      47.631915      1395.2694      90             90             90             0              0              0            
      3900   1194           0.15432996    -7.0703085     -6.9159785      1116607.8      1116238        1117941.6      1115643.9     -79.878863     -383.84228      1.8146178      56.319526      41.199669      47.581468      2174.5086      90             90             90             0              0              0            
      4000   1218           0.15743207    -7.0568042     -6.8993721      1146229.5      1146844.7      1145852.6      1145991.2     -434.20391     -984.35633      443.30674      56.261138      41.155398      47.52348       2219.9158      90             90             90             0              0              0            
      4100   1242           0.16053418    -7.0413369     -6.8808027      1176906        1177592.3      1175982.4      1177143.3      644.59218      1140.5057     -1970.6272      56.200053      41.110662      47.461812      4343.9166      90             90             90             0              0              0            
      4200   1265.3849      0.16355678    -7.0249362     -6.8613794      1209586.6      1208227        1208084        1212448.7     -787.41732     -1482.2832      491.95279      56.134461      41.057208      47.406666      5255.8915      90             90             90             0              0              0            
      4300   1290           0.1667384     -7.0121563     -6.8454179      1240838.8      1242418.9      1242984.6      1237113        826.99395     -767.47943      182.90255      56.060398      41.006151      47.36121       5949.2115      90             90             90             0              0              0            
      4400   1314.2394      0.16987146    -6.9981359     -6.8282644      1269552.8      1269990        1267043.5      1271625       -1200.0356      1502.0547     -1231.9842      56.006412      40.963604      47.307935      5640.4321      90             90             90             0              0              0            
      4500   1338           0.17294262    -6.9822065     -6.8092639      1297470.1      1298884.4      1300834.7      1292691        1355.6587     -3189.1666      2993.2675      55.947886      40.928131      47.258507      10823.398      90             90             90             0              0              0            
      4600   1362           0.17604473    -6.9674029     -6.7913582      1328847        1330315.3      1325260.9      1330964.9     -616.92381      3607.3439     -2783.7496      55.887922      40.88442       47.201872      9627.1078      90             90             90             0              0              0            
      4700   1386           0.17914684    -6.9530145     -6.7738676      1360134.9      1358366.8      1361610.5      1360427.5     -1360.3989     -1022.6875      909.20064      55.825362      40.83449       47.155117      4387.8766      90             90             90             0              0              0            
      4800   1410           0.18224895    -6.9369487     -6.7546998      1388765.2      1389182.7      1391785.9      1385327        1848.0321      2494.2073     -1260.2478      55.764371      40.798777      47.108396      8084.1248      90             90             90             0              0              0            
      4900   1434           0.18535106    -6.9240682     -6.7387171      1419761.8      1416857.3      1419826.8      1422601.2     -2200.485      -1983.3859      275.7118       55.708472      40.751423      47.055645      7163.1051      90             90             90             0              0              0            
      5000   1458           0.18845317    -6.9055736     -6.7171204      1449889        1453283.1      1449736        1446647.9      2069.157       4658.0371     -1823.6082      55.651967      40.709441      47.010739      10999.318      90             90             90             0              0              0            
      5100   1482           0.19155528    -6.8927984     -6.7012431      1479342.7      1481271.4      1478133.2      1478623.6      260.756       -3191.8147      1445.2031      55.597184      40.667953      46.963484      6751.4855      90             90             90             0              0              0            
      5175   1500           0.19388186    -6.8811        -6.6872181      1501708.1      1500522        1504096.6      1500505.8     -390.03278     -2326.6895      2026.0747      55.551171      40.64044       46.93021       6469.0269      90             90             90             0              0              0            
Loop time of 35.538 on 6 procs for 5000 steps with 23200 atoms

Performance: 12.156 ns/day, 1.974 hours/ns, 140.694 timesteps/s, 3.264 Matom-step/s
99.2% CPU use with 6 MPI tasks x 1 OpenMP threads

MPI task timing breakdown:
Section |  min time  |  avg time  |  max time  |%varavg| %total
---------------------------------------------------------------
Pair    | 31.35      | 32.127     | 33.406     |  16.1 | 90.40
Neigh   | 0.039211   | 0.041085   | 0.043985   |   1.0 |  0.12
Comm    | 1.3152     | 2.5889     | 3.3812     |  56.1 |  7.28
Output  | 0.00366    | 0.0038139  | 0.0045528  |   0.5 |  0.01
Modify  | 0.62339    | 0.65116    | 0.66937    |   2.0 |  1.83
Other   |            | 0.1261     |            |       |  0.35

Nlocal:        3866.67 ave        4015 max        3796 min
Histogram: 4 0 0 0 0 0 0 0 1 1
Nghost:         5137.5 ave        5269 max        5037 min
Histogram: 1 2 0 1 0 0 0 0 0 2
Neighs:              0 ave           0 max           0 min
Histogram: 6 0 0 0 0 0 0 0 0 0
FullNghs:       230419 ave      239563 max      225435 min
Histogram: 3 1 0 0 0 0 0 0 1 1

Total # of neighbors = 1382512
Ave neighs/atom = 59.591034
Neighbor list builds = 7
Dangerous builds = 0
unfix		upTemp
unfix		upPress

fix holdTemp all  temp/rescale 1 1500.0 1500.0 1.0 1.0
fix holdPress all nph aniso 1500000.0 1500000.0 0.30 drag 1.50
run		10000
Per MPI rank memory allocation (min/avg/max) = 4.905 | 4.913 | 4.92 Mbytes
   Step          Temp          KinEng         PotEng         TotEng         Press           Pxx            Pyy            Pzz            Pxy            Pxz            Pyz             Ly             Lx             Lz            v_J2        CellAlpha       CellBeta      CellGamma          Xy             Xz             Yz      
      5175   1500           0.19388186    -6.8811        -6.6872181      1501708.1      1500522        1504096.6      1500505.8     -390.03278     -2326.6895      2026.0747      55.551171      40.64044       46.93021       6469.0269      90             90             90             0              0              0            
      5200   1500           0.19388186    -6.8829302     -6.6890483      1499842.9      1496630.7      1499093.5      1503804.5     -2405.8867      4857.9253     -3109.8295      55.557588      40.644113      46.927931      12531.446      90             90             90             0              0              0            
      5300   1500.0719      0.19389116    -6.880001      -6.6861099      1500199.7      1502233.6      1500497.8      1497867.7      2036.1559     -3434.4984      2451.0921      55.556852      40.643748      46.92851       8963.5066      90             90             90             0              0              0            
      5400   1500           0.19388186    -6.8823038     -6.6884219      1501018.1      1500873.7      1501936.9      1500243.7     -669.84371      2377.8254     -1671.8726      55.555017      40.640184      46.928779      5375.0224      90             90             90             0              0              0            
      5500   1500.8826      0.19399594    -6.8830564     -6.6890605      1499458.2      1498780.2      1499058.3      1500536       -838.36843     -2768.5728      1564.0121      55.556802      40.640651      46.932725      5925.6921      90             90             90             0              0              0            
      5600   1500           0.19388186    -6.8826938     -6.6888119      1500362.3      1502508.9      1501239.9      1497338        986.98749      1366.9777     -224.40729      55.557578      40.640865      46.928164      5519.6492      90             90             90             0              0              0            
      5700   1499.0607      0.19376046    -6.8807733     -6.6870129      1500260.3      1498414.4      1497205.4      1505161.2     -1684.6516     -1379.3658      761.77749      55.559808      40.641383      46.926899      8432.072       90             90             90             0              0              0            
      5800   1500           0.19388186    -6.8802072     -6.6863254      1500757.6      1499956.7      1502665.6      1499650.7      319.47374     -877.72798      115.24162      55.55816       40.643022      46.927002      3304.2146      90             90             90             0              0              0            
      5900   1500           0.19388186    -6.8805215     -6.6866396      1500125.1      1501516.1      1497462.1      1501397.2     -169.28487      1235.0298     -1334.1931      55.560442      40.639836      46.928997      5095.966       90             90             90             0              0              0            
      6000   1500           0.19388186    -6.8832667     -6.6893848      1500083.1      1501684.9      1498483        1500081.3      606.28649     -1492.9293      1360.2806      55.558072      40.64063       46.928458      4585.7875      90             90             90             0              0              0            
      6100   1500           0.19388186    -6.8835819     -6.6897001      1499577.5      1497799.1      1500712.8      1500220.6      369.73278      3669.4227     -3147.3423      55.56081       40.641005      46.926332      8821.5262      90             90             90             0              0              0            
      6200   1500.897       0.1939978     -6.8840254     -6.6900276      1499781.8      1503152.7      1497246.8      1498945.9      1446.9278     -2995.1679      3126.8479      55.56128       40.639103      46.930759      9500.3919      90             90             90             0              0              0            
      6300   1500           0.19388186    -6.880016      -6.6861341      1501285.6      1499550.3      1503092        1501214.5     -564.66119      2824.9482     -1924.9161      55.558988      40.641268      46.92533       6740.3636      90             90             90             0              0              0            
      6400   1500           0.19388186    -6.8828317     -6.6889498      1499831.2      1501706.4      1497136.4      1500650.8      1333.5404     -3424.8252      2306.4887      55.563814      40.641572      46.927715      8582.42        90             90             90             0              0              0            
      6500   1500           0.19388186    -6.8854241     -6.6915422      1498642.9      1497793.9      1501330        1496804.8     -522.05717     -303.22418     -231.15865      55.561704      40.640672      46.930123      4270.045       90             90             90             0              0              0            
      6600   1500           0.19388186    -6.8818994     -6.6880176      1501108.4      1499885.4      1501762.1      1501677.8      555.62112     -652.45586     -809.30998      55.553108      40.640763      46.927346      2745.7595      90             90             90             0              0              0            
      6700   1500           0.19388186    -6.8846182     -6.6907364      1498139.9      1497904.1      1496580.9      1499934.9     -62.300405     -1739.1253      1590.8754      55.559419      40.644398      46.930663      5023.9703      90             90             90             0              0              0            
      6800   1499.0684      0.19376145    -6.8823415     -6.68858        1500692.4      1499818.3      1500210.4      1502048.5      560.84562      3583.1046     -3491.4103      55.562679      40.640904      46.925993      8960.0531      90             90             90             0              0              0            
      6900   1500           0.19388186    -6.8831539     -6.6892721      1499796.3      1500135.9      1498101.7      1501151.4     -737.93949     -3373.7396      1956.4792      55.56338       40.641503      46.925288      7382.3197      90             90             90             0              0              0            
      7000   1500           0.19388186    -6.8818007     -6.6879189      1500010.3      1502072        1500211.3      1497747.5      1277.7699      3266.4228     -1043.1928      55.56414       40.638933      46.928769      7368.0325      90             90             90             0              0              0            
      7100   1500           0.19388186    -6.8820155     -6.6881336      1500177.4      1500014.5      1500469.5      1500048.4     -467.92294     -43.595828      279.32961      55.560781      40.639256      46.931526      1043.7232      90             90             90             0              0              0            
      7200   1500           0.19388186    -6.8854725     -6.6915906      1499269.8      1502018        1499898        1495893.4     -23.127034     -898.78287      1622.0617      55.559375      40.642164      46.92946       6272.1138      90             90             90             0              0              0            
      7300   1500           0.19388186    -6.8801282     -6.6862463      1501461.3      1501583.6      1501026        1501774.3      474.5455       2335.6362     -2578.1987      55.556246      40.638786      46.92885       6118.5104      90             90             90             0              0              0            
      7400   1500           0.19388186    -6.881676      -6.6877941      1500639.1      1501162.5      1499422.1      1501332.8      200.13578     -3378.8099      2645.9074      55.563042      40.640015      46.926913      7663.2981      90             90             90             0              0              0            
      7500   1500.1396      0.1938999     -6.8838282     -6.6899283      1499851.2      1501331.6      1499569.1      1498652.8      1409.1494      1425.9885     -1619.0493      55.561892      40.639399      46.930244      5047.9992      90             90             90             0              0              0            
      7600   1500           0.19388186    -6.8824793     -6.6885974      1500033.7      1499281.4      1500436.5      1500383.2     -1066.7222      695.64372      2043.5429      55.558163      40.641064      46.929789      4320.7877      90             90             90             0              0              0            
      7700   1500           0.19388186    -6.8839143     -6.6900324      1499626.6      1501834.2      1498220.3      1498825.4      1163.5358      936.22379     -1318.7394      55.560604      40.642269      46.929626      4811.1777      90             90             90             0              0              0            
      7800   1500           0.19388186    -6.8818962     -6.6880143      1500386        1500064.2      1501723.1      1499370.7     -144.58296      8.0900825      546.96727      55.559975      40.638947      46.930936      2311.6303      90             90             90             0              0              0            
      7900   1500           0.19388186    -6.8828021     -6.6889202      1499256.1      1502503.9      1496066.1      1499198.3      408.03034     -1713.9114      1653.0699      55.563137      40.642097      46.929894      6971.4833      90             90             90             0              0              0            
      8000   1499.5941      0.19382939    -6.8830086     -6.6891792      1500211.9      1501690        1500487.9      1498457.6      871.90543      2339.1993     -2062.3475      55.563338      40.640478      46.927391      6282.0375      90             90             90             0              0              0            
      8100   1500           0.19388186    -6.8820742     -6.6881924      1500709.2      1500183.6      1500540.2      1501403.8     -1674.7251     -1444.9913      2197.5421      55.560215      40.641714      46.927856      5508.7822      90             90             90             0              0              0            
      8200   1500           0.19388186    -6.883512      -6.6896301      1499138.2      1498239.1      1497800.9      1501374.7      218.39559      2794.3815     -396.70433      55.561078      40.644812      46.92844       5953.0967      90             90             90             0              0              0            
      8300   1500.7306      0.19397629    -6.8839168     -6.6899405      1500000        1496617.3      1505260.6      1498122.1     -194.29055     -762.83765     -32.086031      55.555947      40.643223      46.92923       8113.3894      90             90             90             0              0              0            
      8400   1500           0.19388186    -6.8833582     -6.6894764      1500640.7      1502129.4      1497210.6      1502582.2     -50.44462       1760.6166      389.21085      55.557194      40.642166      46.929384      6032.3044      90             90             90             0              0              0            
      8500   1499.9302      0.19387283    -6.8841503     -6.6902774      1499392.5      1500580.8      1498973.7      1498622.8      498.7921      -45.147059      550.88192      55.564139      40.641064      46.92833       2220.9935      90             90             90             0              0              0            
      8600   1500           0.19388186    -6.8844903     -6.6906085      1500201.7      1499930.7      1502218.1      1498456.5      749.38959     -162.50952     -608.19464      55.563598      40.639153      46.928695      3694.7546      90             90             90             0              0              0            
      8700   1500           0.19388186    -6.8823433     -6.6884614      1500277.5      1501067.6      1497428.7      1502336.2     -742.64022      4071.5176     -2157.344       55.561612      40.641148      46.928221      9209.55        90             90             90             0              0              0            
      8800   1500           0.19388186    -6.8846778     -6.690796       1499830.1      1498855.4      1501972.9      1498662.1      332.09225     -4782.7316      3244.9876      55.558749      40.641779      46.9307        10531.06       90             90             90             0              0              0            
      8900   1499.4338      0.19380868    -6.8823414     -6.6885327      1500272.9      1498594.7      1500503.8      1501720.3      29.267676      6773.3913     -4363.6367      55.55843       40.640911      46.931864      14220.066      90             90             90             0              0              0            
      9000   1500           0.19388186    -6.882701      -6.6888192      1500289.6      1501871.8      1500363.1      1498634        1149.0684     -3253.6724      2335.3646      55.558773      40.641587      46.929598      7743.1724      90             90             90             0              0              0            
      9100   1500           0.19388186    -6.8837192     -6.6898374      1499502.8      1499015.2      1500901.5      1498591.7      746.37989      1928.4173     -959.206        55.559764      40.640008      46.930131      4486.0051      90             90             90             0              0              0            
      9200   1500           0.19388186    -6.8849034     -6.6910216      1498573.9      1501368.9      1496410.7      1497942.2      861.70689      2070.8772     -533.85924      55.560143      40.643874      46.93008       5940.0307      90             90             90             0              0              0            
      9300   1500           0.19388186    -6.8849985     -6.6911166      1499651.6      1497517.2      1502883.8      1498553.8     -1517.9416     -3277.7946      3263.3953      55.558253      40.645006      46.927205      9767.5897      90             90             90             0              0              0            
      9400   1499.6038      0.19383065    -6.8820877     -6.688257       1500451.1      1499367        1503037.6      1498948.7     -31.210805      3565.7996     -2616.6397      55.559207      40.64222       46.929435      8594.8806      90             90             90             0              0              0            
      9500   1500           0.19388186    -6.8835936     -6.6897117      1500088        1500660.2      1499865.9      1499737.9     -1170.1727     -5393.325       3209.9438      55.561109      40.641274      46.930174      11091.982      90             90             90             0              0              0            
      9600   1500           0.19388186    -6.8830972     -6.6892154      1499309        1498422.9      1500799.7      1498704.5     -334.1847       4593.9617     -3735.0257      55.565304      40.640691      46.927404      10514.706      90             90             90             0              0              0            
      9700   1500           0.19388186    -6.8837313     -6.6898494      1499943.3      1500841.8      1499635        1499353.2      919.4998      -4653.8126      2920.288       55.564042      40.640766      46.929645      9745.2848      90             90             90             0              0              0            
      9800   1499.1554      0.19377269    -6.88075       -6.6869773      1501098        1499808.3      1499867.2      1503618.5     -1471.442       1675.3629     -1207.0396      55.562776      40.640895      46.927315      5795.159       90             90             90             0              0              0            
      9900   1500           0.19388186    -6.8830481     -6.6891662      1499531.1      1500637.9      1500135.7      1497819.8     -1184.1969     -734.92639      590.36115      55.5615        40.639906      46.931041      3694.8222      90             90             90             0              0              0            
     10000   1500           0.19388186    -6.884993      -6.6911111      1499538.2      1500406.6      1499243.6      1498964.6      37.303461      507.28873      264.60012      55.55982       40.641379      46.92916       1655.6262      90             90             90             0              0              0            
     10100   1500           0.19388186    -6.8835975     -6.6897156      1499900.6      1497363.7      1504369.1      1497969       -391.15069      2535.1086     -1035.5625      55.559601      40.644068      46.928178      8255.7972      90             90             90             0              0              0            
     10200   1500           0.19388186    -6.8824335     -6.6885516      1499476        1500460.6      1499538.5      1498428.9      104.77248      296.68249      1863.2337      55.562217      40.642422      46.929992      3717.0558      90             90             90             0              0              0            
     10300   1500           0.19388186    -6.8819301     -6.6880482      1500828.9      1501684.7      1502601.6      1498200.3      135.92009      4399.4406     -2141.4927      55.564248      40.638612      46.927912      9383.7887      90             90             90             0              0              0            
     10400   1500           0.19388186    -6.8837418     -6.6898599      1499602.5      1498349.8      1499595.4      1500862.4     -1294.4696     -1318.0176      2115.0354      55.562067      40.641847      46.92931       5328.5795      90             90             90             0              0              0            
     10500   1500           0.19388186    -6.8827555     -6.6888736      1500199.6      1503167.2      1498020.5      1499411.1      2253.1183      1246.7535     -1058.7252      55.558542      40.64385       46.92748       6672.3535      90             90             90             0              0              0            
     10600   1500           0.19388186    -6.8841852     -6.6903033      1499822.2      1496164.5      1503281.7      1500020.4     -1584.3373      484.81586      853.92712      55.556295      40.64163       46.930896      6964.3071      90             90             90             0              0              0            
     10700   1500           0.19388186    -6.8821582     -6.6882763      1499872.7      1505387.3      1493798.8      1500431.9      1733.8448      1518.8209     -94.573476      55.558699      40.642104      46.935165      10834.687      90             90             90             0              0              0            
     10800   1499.8089      0.19385716    -6.8841022     -6.690245       1498943.3      1492807.5      1505501.1      1498521.3     -2317.0156     -1254.6796      427.53203      55.558255      40.643968      46.93228       11942.536      90             90             90             0              0              0            
     10900   1500           0.19388186    -6.8840675     -6.6901856      1499947.5      1503874.9      1493765.1      1502202.3      1064.8168      767.57456     -470.29512      55.566681      40.641328      46.923791      9691.6469      90             90             90             0              0              0            
     11000   1500.3244      0.19392379    -6.8803867     -6.6864629      1501041.8      1501179.3      1501161.7      1500784.5     -755.64825      196.50226     -677.36087      55.562855      40.641102      46.928423      1831.549       90             90             90             0              0              0            
     11100   1500           0.19388186    -6.8826342     -6.6887524      1500254.6      1496701.6      1503308.1      1500754       -997.64585     -2185.1347      1365.6629      55.561099      40.639304      46.930481      7496.6809      90             90             90             0              0              0            
     11200   1500           0.19388186    -6.8847112     -6.6908293      1499409.1      1503645        1494826.4      1499755.9      2066.0925     -1475.5438     -530.00484      55.560431      40.641604      46.932134      8875.6834      90             90             90             0              0              0            
     11300   1500           0.19388186    -6.8838072     -6.6899254      1500024.8      1494519.2      1504370.8      1501184.5     -2671.764       1187.9601     -1310.9347      55.556813      40.642647      46.931563      10325.71       90             90             90             0              0              0            
     11400   1500.6472      0.19396552    -6.8833193     -6.6893538      1500784.6      1502091.4      1500605.8      1499656.7      1032.0075      3078.3918     -1289.4191      55.560801      40.642664      46.92815       6413.2756      90             90             90             0              0              0            
     11500   1500           0.19388186    -6.884968      -6.6910861      1499715        1502064.3      1497061.1      1500019.5     -1439.3921     -1153.0102      2701.5556      55.562681      40.638971      46.931686      7147.1713      90             90             90             0              0              0            
     11600   1500           0.19388186    -6.8813779     -6.6874961      1500201.2      1498611        1501070.8      1500921.7      90.383281      1173.2963     -1564.7964      55.562097      40.642798      46.928299      4148.0633      90             90             90             0              0              0            
     11700   1500           0.19388186    -6.8826763     -6.6887944      1499915.3      1500361.6      1499322.6      1500061.7     -192.73981     -3413.3896      1789.2112      55.560598      40.643832      46.930937      6747.3625      90             90             90             0              0              0            
     11800   1499.0692      0.19376155    -6.8843171     -6.6905555      1499351        1497298.5      1498857.5      1501897       -663.89724      1538.1224     -570.30616      55.559918      40.643612      46.930832      5079.6932      90             90             90             0              0              0            
     11900   1500.8933      0.19399733    -6.88359       -6.6895927      1500089.3      1501041.3      1500307.7      1498919        155.5245       2078.6518     -1663.2614      55.562087      40.641727      46.929695      4981.9083      90             90             90             0              0              0            
     12000   1500           0.19388186    -6.8832256     -6.6893437      1500089.6      1498092.1      1500153.3      1502023.3     -1293.9456     -2203.5855      1769.1096      55.562497      40.639469      46.931473      6370.2135      90             90             90             0              0              0            
     12100   1500           0.19388186    -6.8836854     -6.6898036      1499962.4      1501707.6      1498324.7      1499854.7      796.9607       1437.6597     -1018.6028      55.560131      40.6426        46.928237      4452.7957      90             90             90             0              0              0            
     12200   1499.7911      0.19385486    -6.8822862     -6.6884313      1500627.3      1499648.6      1499418        1502815.1     -1321.5035     -2435.7247      1987.9135      55.561361      40.642271      46.928646      6760.3894      90             90             90             0              0              0            
     12300   1500           0.19388186    -6.8833354     -6.6894535      1499306.4      1497241.3      1501414.1      1499263.8      1.3784517      387.07709     -39.065569      55.563943      40.642327      46.931467      3676.5341      90             90             90             0              0              0            
     12400   1500.6131      0.19396111    -6.8824768     -6.6885157      1500122.6      1503883.1      1496131.8      1500352.8      753.55025      170.96227     -802.13445      55.560532      40.643548      46.928016      6993.0334      90             90             90             0              0              0            
     12500   1499.0822      0.19376323    -6.8829451     -6.6891819      1499524.3      1494193        1504451.5      1499928.3     -3315.8738     -1181.4829      1118.7714      55.561129      40.644963      46.927825      10964.561      90             90             90             0              0              0            
     12600   1499.2963      0.19379091    -6.8827472     -6.6889563      1500057.9      1505785.3      1497176.3      1497212.1      2056.6512      785.08412     -413.5738       55.56445       40.640744      46.929209      9426.5575      90             90             90             0              0              0            
     12700   1499.874       0.19386557    -6.882426      -6.6885605      1500492.2      1499459        1500423.5      1501594.2     -1380.579      -955.35604      898.93366      55.563286      40.639533      46.929439      3782.9118      90             90             90             0              0              0            
     12800   1500.7675      0.19398106    -6.8842666     -6.6902855      1499272.6      1496947.6      1502007.5      1498862.7      391.75615      3742.2691     -1847.2718      55.562533      40.64072       46.932924      8502.4446      90             90             90             0              0              0            
     12900   1499.2808      0.1937889     -6.8808831     -6.6870942      1500888.7      1503734.6      1500381.5      1498550.2      667.63084     -3588.2926      2216.697       55.559446      40.645606      46.928783      8685.8098      90             90             90             0              0              0            
     13000   1499.7         0.19384309    -6.8844904     -6.6906473      1499172        1495417.8      1502583.1      1499515.1     -1442.1425      3225.0892     -2098.4433      55.558948      40.647029      46.930865      9456.431       90             90             90             0              0              0            
     13100   1500           0.19388186    -6.8825139     -6.688632       1500568.7      1500673.3      1500264.6      1500768.2      1247.144      -2912.3221      538.35508      55.559628      40.640849      46.929501      5585.2746      90             90             90             0              0              0            
     13200   1500           0.19388186    -6.8817583     -6.6878765      1500728.2      1504381        1499218.1      1498585.4      1076.6726      1859.7043     -3230.4528      55.563513      40.642662      46.92856       8688.0921      90             90             90             0              0              0            
     13300   1500.6294      0.19396321    -6.8830233     -6.68906        1499612.9      1498316.6      1502651.7      1497870.3     -521.15682     -4845.0391      1912.3033      55.561307      40.642208      46.933291      10155.562      90             90             90             0              0              0            
     13400   1500           0.19388186    -6.8823061     -6.6884242      1500710.2      1498804.1      1502316        1501010.5     -534.78895      752.64148     -1609.0092      55.554031      40.643666      46.931793      4447.1274      90             90             90             0              0              0            
     13500   1500           0.19388186    -6.8821653     -6.6882835      1500794.9      1502240.4      1501249.5      1498894.7      617.81626      420.95592     -113.949        55.560346      40.643642      46.931249      3252.124       90             90             90             0              0              0            
     13600   1500           0.19388186    -6.8822969     -6.688415       1500620        1498122.6      1502680.9      1501056.5     -1971.7911     -2532.8         1228.8472      55.56459       40.639768      46.930686      7172.9661      90             90             90             0              0              0            
     13700   1500           0.19388186    -6.8836381     -6.6897563      1499484.7      1500574.2      1496795.8      1501084.1      217.06699      1254.1258     -2073.1518      55.566269      40.641826      46.928633      5849.4796      90             90             90             0              0              0            
     13800   1500.0601      0.19388963    -6.8817417     -6.6878521      1500492.4      1498996.9      1501041.9      1501438.3      633.41556     -2282.4129      1608.4274      55.561429      40.641613      46.928446      5453.6869      90             90             90             0              0              0            
     13900   1500           0.19388186    -6.8828585     -6.6889766      1500269.5      1502079.1      1499497.3      1499232.2      1261.1674      416.57885      708.4219       55.559139      40.644958      46.929444      3770.7364      90             90             90             0              0              0            
     14000   1500           0.19388186    -6.8841486     -6.6902667      1499404.6      1499490.1      1496965.2      1501758.5     -556.74451     -105.12498      23.207389      55.559919      40.644226      46.930988      4267.6885      90             90             90             0              0              0            
     14100   1500           0.19388186    -6.8826499     -6.688768       1500409.7      1496887.8      1505526.3      1498815.1     -284.06829      1066.584      -186.17018      55.559511      40.643329      46.929278      8089.9948      90             90             90             0              0              0            
     14200   1500           0.19388186    -6.8828941     -6.6890122      1499185.3      1502643.8      1493387.9      1501524.1      1023.5589     -1387.2127      1783.7744      55.564724      40.643576      46.930869      9748.0161      90             90             90             0              0              0            
     14300   1500           0.19388186    -6.8824394     -6.6885576      1500902.8      1496819.1      1505008.3      1500880.8     -1506.0318      3170.9214     -1574.0237      55.565804      40.639175      46.928611      9731.3813      90             90             90             0              0              0            
     14400   1500           0.19388186    -6.8831799     -6.6892981      1500177.4      1504622.9      1493942.6      1501966.7      1075.5256     -1880.7525      730.81446      55.568768      40.637968      46.930883      10413.397      90             90             90             0              0              0            
     14500   1500           0.19388186    -6.8846841     -6.6908023      1499469.5      1499161.6      1499209.5      1500037.5     -1626.1944     -1646.9175      558.4245       55.565844      40.642179      46.92976       4211.1351      90             90             90             0              0              0            
     14600   1500           0.19388186    -6.8827548     -6.6888729      1500081.7      1496115.8      1504777.1      1499352.2      903.97496      1798.8517     -1839.4012      55.557973      40.643985      46.930109      8931.4012      90             90             90             0              0              0            
     14700   1500           0.19388186    -6.8837454     -6.6898635      1499241.7      1499995.7      1495542.8      1502186.5     -641.8224      -880.42202      1622.026       55.558817      40.643714      46.935172      6770.3596      90             90             90             0              0              0            
     14800   1500.3247      0.19392382    -6.8836391     -6.6897153      1499831.8      1496503.2      1506130.3      1496862       -478.5316       1001.105      -1104.7251      55.560214      40.643081      46.932598      9834.1352      90             90             90             0              0              0            
     14900   1499.7749      0.19385277    -6.8824888     -6.688636       1500658.7      1501873.7      1498095.9      1502006.6      145.9727      -1020.4146      1909.6779      55.558993      40.645399      46.92895       5377.6882      90             90             90             0              0              0            
     15000   1500.6692      0.19396836    -6.8836218     -6.6896535      1500067        1500314.6      1497203.2      1502683.1     -1732.395      -1293.8821      59.731751      55.562043      40.644343      46.928789      6057.819       90             90             90             0              0              0            
     15100   1500           0.19388186    -6.8828408     -6.688959       1500287.5      1497583.8      1506250.7      1497028.1     -419.90651      2977.2295     -2139.3318      55.561575      40.641388      46.932029      11004.14       90             90             90             0              0              0            
     15175   1500           0.19388186    -6.8831973     -6.6893154      1500142.5      1499114.6      1502724.1      1498588.9      261.8529       1389.4272     -443.12011      55.561705      40.644605      46.930639      4667.8634      90             90             90             0              0              0            
Loop time of 75.6156 on 6 procs for 10000 steps with 23200 atoms

Performance: 11.426 ns/day, 2.100 hours/ns, 132.248 timesteps/s, 3.068 Matom-step/s
99.3% CPU use with 6 MPI tasks x 1 OpenMP threads

MPI task timing breakdown:
Section |  min time  |  avg time  |  max time  |%varavg| %total
---------------------------------------------------------------
Pair    | 67.311     | 68.934     | 72.049     |  22.4 | 91.16
Neigh   | 0          | 0          | 0          |   0.0 |  0.00
Comm    | 1.9964     | 5.1143     | 6.707      |  81.6 |  6.76
Output  | 0.0073491  | 0.0076616  | 0.0091902  |   0.8 |  0.01
Modify  | 1.2426     | 1.3033     | 1.3449     |   3.2 |  1.72
Other   |            | 0.2561     |            |       |  0.34

Nlocal:        3866.67 ave        4044 max        3788 min
Histogram: 4 0 0 0 0 0 1 0 0 1
Nghost:        5190.83 ave        5320 max        5078 min
Histogram: 1 0 2 1 0 0 0 0 1 1
Neighs:              0 ave           0 max           0 min
Histogram: 6 0 0 0 0 0 0 0 0 0
FullNghs:       239553 ave      252093 max      233368 min
Histogram: 1 3 0 0 0 0 1 0 0 1

Total # of neighbors = 1437320
Ave neighs/atom = 61.953448
Neighbor list builds = 0
Dangerous builds = 0
unfix		holdTemp
unfix		holdPress

fix	INTEGRATE_FIX  all nve
run 10000
Per MPI rank memory allocation (min/avg/max) = 4.905 | 4.914 | 4.921 Mbytes
   Step          Temp          KinEng         PotEng         TotEng         Press           Pxx            Pyy            Pzz            Pxy            Pxz            Pyz             Ly             Lx             Lz            v_J2        CellAlpha       CellBeta      CellGamma          Xy             Xz             Yz      
     15175   1500           0.19388186    -6.8831973     -6.6893154      1500142.5      1499114.6      1502724.1      1498588.9      261.8529       1389.4272     -443.12011      55.561705      40.644605      46.930639      4667.8634      90             90             90             0              0              0            
     15200   1495.1338      0.19325288    -6.8825626     -6.6893097      1499603.7      1500776.1      1496205.5      1501829.5     -1308.3144     -1864.5661      843.46298      55.561705      40.644605      46.930639      6671.8223      90             90             90             0              0              0            
     15300   1504.6384      0.19448139    -6.8838192     -6.6893378      1499947.1      1499626.6      1502431.6      1497783.3      802.66214      2320.0171     -600.18801      55.561705      40.644605      46.930639      5966.3683      90             90             90             0              0              0            
     15400   1500.2473      0.19391383    -6.8832153     -6.6893014      1500209.6      1498782.8      1496780.3      1505065.6     -1986.1697      1765.9393     -320.82549      55.561705      40.644605      46.930639      8807.0219      90             90             90             0              0              0            
     15500   1496.7242      0.19345845    -6.8827424     -6.6892839      1500032.7      1501539.5      1501491.9      1497066.6      32.204356     -812.27216      1061.7548      55.561705      40.644605      46.930639      5016.0323      90             90             90             0              0              0            
     15600   1495.511       0.19330164    -6.8825859     -6.6892843      1500076.6      1500920.8      1500115.2      1499193.8     -810.84042      1129.581      -348.38593      55.561705      40.644605      46.930639      2899.082       90             90             90             0              0              0            
     15700   1501.5118      0.19407726    -6.8833717     -6.6892945      1499500.8      1500880.6      1497856.9      1499764.9      1015.7959     -905.94625      773.11443      55.561705      40.644605      46.930639      3790.0715      90             90             90             0              0              0            
     15800   1512.6754      0.19552022    -6.8847975     -6.6892773      1499414.2      1496867.8      1501945.7      1499429.1     -1781.1833      937.27292      224.10672      55.561705      40.644605      46.930639      5625.2416      90             90             90             0              0              0            
     15900   1499.5155      0.19381923    -6.8830407     -6.6892214      1499341.2      1503388        1494153        1500482.6      2423.3832      878.92234     -1225.1747      55.561705      40.644605      46.930639      9556.8699      90             90             90             0              0              0            
     16000   1502.2247      0.19416941    -6.8833701     -6.6892007      1499536.1      1494706        1503662.3      1500240       -1015.3408     -1867.3684      2341.6005      55.561705      40.644605      46.930639      9553.9995      90             90             90             0              0              0            
     16100   1513.3648      0.19560933    -6.8848338     -6.6892245      1499611.1      1501958.7      1494959.2      1501915.6      863.74731      1588.4591     -2421.0978      55.561705      40.644605      46.930639      8722.7235      90             90             90             0              0              0            
     16200   1491.2216      0.19274721    -6.8819157     -6.6891685      1499850.2      1496303.4      1504522.9      1498724.3     -1605.6473     -1110.0403      2446.8245      55.561705      40.644605      46.930639      9105.7148      90             90             90             0              0              0            
     16300   1492.6124      0.19292698    -6.882071      -6.689144       1499868.3      1499529.6      1498055.4      1502019.9     -1053.3118      3154.3626     -1110.623       55.561705      40.644605      46.930639      6994.6226      90             90             90             0              0              0            
     16400   1492.2168      0.19287585    -6.8819938     -6.689118       1500474.6      1500822.1      1500757.9      1499843.7      405.57236     -2437.6884      1813.8744      55.561705      40.644605      46.930639      5393.4719      90             90             90             0              0              0            
     16500   1493.0134      0.19297881    -6.8820752     -6.6890964      1500254.9      1498759.8      1502069.9      1499934.9     -1342.9948     -476.68549     -173.83196      55.561705      40.644605      46.930639      3825.067       90             90             90             0              0              0            
     16600   1492.0288      0.19285155    -6.8819517     -6.6891002      1499888.5      1505670.6      1497907.1      1496087.7      2144.0349      2603.3646     -1598.4435      55.561705      40.644605      46.930639      10931.396      90             90             90             0              0              0            
     16700   1507.233       0.19481676    -6.8839345     -6.6891178      1499887.3      1497278.6      1505941.3      1496441.9     -442.9595      -682.20457      1924.3629      55.561705      40.644605      46.930639      9802.3255      90             90             90             0              0              0            
     16800   1500.3101      0.19392195    -6.8830179     -6.689096       1499800.8      1506892.3      1491834.4      1500675.6      1011.1353      3399.4188     -2695.2238      55.561705      40.644605      46.930639      15208.654      90             90             90             0              0              0            
     16900   1507.6223      0.19486708    -6.8839869     -6.6891198      1499233.2      1494098.5      1505500.2      1498100.9     -1486.4172     -3063.6639      1837.9277      55.561705      40.644605      46.930639      12054.176      90             90             90             0              0              0            
     17000   1510.5597      0.19524674    -6.8843716     -6.6891248      1499486        1504716.8      1495536        1498205.2      1020.3748      3901.4873     -1494.6204      55.561705      40.644605      46.930639      11063.267      90             90             90             0              0              0            
     17100   1501.4143      0.19406466    -6.8831307     -6.689066       1499353.6      1496600.1      1502322.7      1499138       -1167.2765     -1690.9378      900.89363      55.561705      40.644605      46.930639      6306.0223      90             90             90             0              0              0            
     17200   1502.5751      0.19421471    -6.8833172     -6.6891025      1500220.2      1502967.8      1497435.4      1500257.4      230.48667      2782.4116     -2535.6522      55.561705      40.644605      46.930639      8101.3527      90             90             90             0              0              0            
     17300   1484.9195      0.19193263    -6.880985      -6.6890523      1500331.1      1501084.9      1498126.3      1501782       -770.56394     -942.36774      1933.5201      55.561705      40.644605      46.930639      5192.5512      90             90             90             0              0              0            
     17400   1500.7961      0.19398476    -6.883058      -6.6890733      1499675.1      1496626.4      1501815.9      1500582.9     -1561.8445     -48.81328       1244.5164      55.561705      40.644605      46.930639      5833.0038      90             90             90             0              0              0            
     17500   1508.592       0.19499242    -6.8840479     -6.6890555      1499710.8      1504097.2      1495017.8      1500017.4      1369.7684      1957.4739     -1046.8243      55.561705      40.644605      46.930639      9080.1793      90             90             90             0              0              0            
     17600   1499.967       0.1938776     -6.8829241     -6.6890465      1499784.5      1500098.7      1502457.1      1496797.6     -276.8585      -1864.6993      535.0596       55.561705      40.644605      46.930639      5980.3275      90             90             90             0              0              0            
     17700   1513.3737      0.19561047    -6.8847001     -6.6890896      1499450.6      1500997.6      1496472.4      1500881.8     -1351.8405      5014.922      -3356.1611      55.561705      40.644605      46.930639      11605.56       90             90             90             0              0              0            
     17800   1507.4483      0.19484459    -6.883895      -6.6890504      1499465.3      1500949.2      1500164.6      1497282.2      1309.3846     -1915.588       2250.8308      55.561705      40.644605      46.930639      6521.9311      90             90             90             0              0              0            
     17900   1501.5812      0.19408624    -6.8830744     -6.6889882      1499956.9      1500958.7      1496787.3      1502124.7     -1384.1978      3415.7121     -2368.7054      55.561705      40.644605      46.930639      9011.4244      90             90             90             0              0              0            
     18000   1497.7709      0.19359374    -6.8826022     -6.6890085      1500057.1      1503632.9      1499741.1      1496797.2      2035.9274     -5933.361       4100.1465      55.561705      40.644605      46.930639      14274.206      90             90             90             0              0              0            
     18100   1502.2854      0.19417726    -6.883176      -6.6889987      1500043.2      1497268.1      1502051        1500810.5     -1764.6194      1405.9988     -1754.359       55.561705      40.644605      46.930639      6556.4281      90             90             90             0              0              0            
     18200   1503.0857      0.1942807     -6.8832716     -6.6889909      1499676.7      1502646.6      1495154.8      1501228.8      952.53387     -1143.7025      1026.8267      55.561705      40.644605      46.930639      7571.2732      90             90             90             0              0              0            
     18300   1505.7118      0.19462014    -6.8836154     -6.6889953      1500124.8      1501154.9      1505385.2      1493834.4      2081.1558      2462.4586     -982.45703      55.561705      40.644605      46.930639      11684.772      90             90             90             0              0              0            
     18400   1499.5098      0.1938185     -6.8828049     -6.6889864      1499717.3      1499426.5      1495407.4      1504318       -1594.3037     -242.55721      622.21514      55.561705      40.644605      46.930639      8288.759       90             90             90             0              0              0            
     18500   1503.2374      0.19430031    -6.8832853     -6.688985       1500462        1499168.2      1504058.6      1498159.2     -544.81299     -2852.402       2304.1737      55.561705      40.644605      46.930639      8431.839       90             90             90             0              0              0            
     18600   1500.2014      0.1939079     -6.8828654     -6.6889575      1500156.7      1501679.4      1497867.5      1500923.2      1186.1538      4791.1445     -3077.5628      55.561705      40.644605      46.930639      10663.95       90             90             90             0              0              0            
     18700   1499.4926      0.19381628    -6.8827367     -6.6889205      1500258.7      1499786.3      1499076.4      1501913.2     -1469.1587     -6104.3075      3776.435       55.561705      40.644605      46.930639      12945.458      90             90             90             0              0              0            
     18800   1504.3537      0.1944446     -6.8833293     -6.6888847      1500264.5      1498099.8      1504607.6      1498086.3     -61.241258      4634.8881     -4403.1416      55.561705      40.644605      46.930639      12847.581      90             90             90             0              0              0            
     18900   1503.5841      0.19434513    -6.8832015     -6.6888563      1500311.8      1501943.3      1497250.3      1501741.9      1702.8895     -3605.8233      2078.4799      55.561705      40.644605      46.930639      9043.545       90             90             90             0              0              0            
     19000   1491.6687      0.19280501    -6.8816474     -6.6888424      1499677.7      1493708        1503260.4      1502064.7     -3088.9314      1349.0432     -2220.0119      55.561705      40.644605      46.930639      11407.213      90             90             90             0              0              0            
     19100   1495.5931      0.19331225    -6.8821489     -6.6888367      1500169.4      1503692.4      1495316.8      1501499.1     -593.41307      1655.7834     -1850.4734      55.561705      40.644605      46.930639      8726.145       90             90             90             0              0              0            
     19200   1491.1413      0.19273684    -6.8815494     -6.6888125      1500279.9      1498090.5      1504531.8      1498217.4     -1230.2489     -982.23975      162.02798      55.561705      40.644605      46.930639      6942.7714      90             90             90             0              0              0            
     19300   1504.721       0.19449207    -6.8833587     -6.6888667      1500174.8      1504794.4      1496417        1499313        1073.3969      1435.1236     -2544.2209      55.561705      40.644605      46.930639      9130.2518      90             90             90             0              0              0            
     19400   1501.2576      0.19404441    -6.8828859     -6.6888415      1500278.7      1497313.9      1500419.6      1503102.5     -2353.4671     -3080.4694      1314.221       55.561705      40.644605      46.930639      8685.7061      90             90             90             0              0              0            
     19500   1504.0317      0.19440297    -6.8831915     -6.6887885      1499896        1501539.7      1503155.7      1494992.5      1814.6581      4176.9451     -3509.4924      55.561705      40.644605      46.930639      12458.972      90             90             90             0              0              0            
     19600   1507.9211      0.1949057     -6.8837038     -6.6887981      1500219.4      1497045.3      1495870.4      1507742.5     -3003.523      -4169.0094      2420.5132      55.561705      40.644605      46.930639      15005.351      90             90             90             0              0              0            
     19700   1512.3494      0.19547808    -6.8842902     -6.6888121      1499563.8      1498950.4      1503385.9      1496355.1      1365.1459      2938.442      -1408.0292      55.561705      40.644605      46.930639      8681.1925      90             90             90             0              0              0            
     19800   1500.9088      0.19399933    -6.8827682     -6.6887689      1499965.4      1500152.7      1495141.1      1504602.4     -2047.213      -548.69309     -132.2898       55.561705      40.644605      46.930639      8985.8193      90             90             90             0              0              0            
     19900   1507.3758      0.19483521    -6.8835966     -6.6887614      1500460.7      1498947.4      1505778.2      1496656.4      1304.4448      1837.5788     -821.07225      55.561705      40.644605      46.930639      9209.5067      90             90             90             0              0              0            
     20000   1503.8427      0.19437854    -6.8831369     -6.6887583      1499388.7      1497754.3      1497205.4      1503206.5     -1602.5021      271.54639     -1394.2772      55.561705      40.644605      46.930639      6839.3792      90             90             90             0              0              0            
     20100   1503.8009      0.19437315    -6.8830987     -6.6887255      1500557.8      1498764.4      1500860.7      1502048.3     -832.99387      47.154674      6.279829       55.561705      40.644605      46.930639      3222.2335      90             90             90             0              0              0            
     20200   1507.6853      0.19487522    -6.8836145     -6.6887393      1500101        1500581        1499895.9      1499826.1      661.43843      2032.5962     -823.66918      55.561705      40.644605      46.930639      4032.8807      90             90             90             0              0              0            
[...]
    396500   2797.0776      0.36153507    -6.6992966     -6.3377615      1612844.8      1633004.5      1623571.8      1581958.1      198438.23      4072.6469     -2554.6687      55.561705      40.644605      46.930639      347009.7       90             90             92.270588     -2.2030216      0              0            
    396600   2803.3773      0.36234934    -6.6993985     -6.3370492      1610278        1625214.8      1619676        1585943        194118.21     -2900.9247      1877.3753      55.561705      40.644605      46.930639      338285.21      90             90             92.27116      -2.2035772      0              0            
    396700   2812.6722      0.36355075    -6.699618      -6.3360672      1611147.8      1623633.6      1624993.8      1584816        197169.02      3346.7121     -1623.6128      55.561705      40.644605      46.930639      343845.64      90             90             92.271732     -2.2041328      0              0            
    396800   2810.4241      0.36326017    -6.6985895     -6.3353294      1613162.5      1629001.2      1622067.8      1588418.7      191485.24     -457.97779      1369.0601      55.561705      40.644605      46.930639      333795.87      90             90             92.272304     -2.2046885      0              0            
    396900   2808.3508      0.36299218    -6.6975105     -6.3345183      1609832.8      1627370.6      1618208.5      1583919.3      195147.55     -1526.6721     -1357.0398      55.561705      40.644605      46.930639      340344.05      90             90             92.272877     -2.2052441      0              0            
    397000   2826.6986      0.36536372    -6.6991649     -6.3338012      1613411.7      1638882.5      1623218.1      1578134.5      201001.38     -3248.0203      279.37274      55.561705      40.644605      46.930639      352449.51      90             90             92.273449     -2.2057997      0              0            
    397100   2819.5828      0.36444397    -6.6972124     -6.3327684      1610696.5      1621879.6      1625572.2      1584637.7      188836.59      1648.2559     -2249.532       55.561705      40.644605      46.930639      329452.91      90             90             92.274021     -2.2063553      0              0            
    397200   2796.6742      0.36148293    -6.6933157     -6.3318328      1614176.8      1638122.9      1620884.3      1583523.1      200749.19     -7388.4106      2841.3266      55.561705      40.644605      46.930639      351320.05      90             90             92.274593     -2.2069109      0              0            
    397300   2822.8627      0.36486792    -6.6958363     -6.3309684      1612299.3      1623067.9      1617390.2      1596439.9      185955.94      4102.333      -872.45552      55.561705      40.644605      46.930639      323081.59      90             90             92.275165     -2.2074665      0              0            
    397400   2824.0798      0.36502523    -6.695062      -6.3300368      1613138.8      1638007.9      1625619.9      1575788.6      204797.72     -5841.2063      3815.1922      55.561705      40.644605      46.930639      359480.55      90             90             92.275737     -2.2080222      0              0            
    397500   2806.9053      0.36280535    -6.6919204     -6.3291151      1614100.7      1629235.9      1626293.9      1586772.2      192594.25      9686.5582     -4835.6732      55.561705      40.644605      46.930639      336624.68      90             90             92.276309     -2.2085778      0              0            
    397600   2844.7991      0.36770329    -6.6958298     -6.3281265      1615385        1635098.8      1620105.3      1590950.9      193089.31     -4052.8102      5088.872       55.561705      40.644605      46.930639      336881.76      90             90             92.276881     -2.2091334      0              0            
    397700   2836.0729      0.36657539    -6.6938513     -6.327276       1612830        1627508.7      1629450.2      1581531.2      194639.3       1278.8345     -3141.6853      55.561705      40.644605      46.930639      340433.33      90             90             92.277453     -2.209689       0              0            
    397800   2844.0686      0.36760888    -6.6938934     -6.3262845      1614626.5      1633645.3      1622285.2      1587948.9      196614.71     -2397.1364      1564.1422      55.561705      40.644605      46.930639      343066.63      90             90             92.278025     -2.2102446      0              0            
    397900   2826.5239      0.36534115    -6.690717      -6.3253759      1617039.1      1635624.5      1632153        1583339.7      199041.62      2811.9862     -1195.8767      55.561705      40.644605      46.930639      348489.53      90             90             92.278597     -2.2108002      0              0            
    398000   2855.3687      0.36906947    -6.6934952     -6.3244257      1614412.4      1635580.3      1615000.2      1592656.7      191703.21     -2247.6055      1852.7179      55.561705      40.644605      46.930639      334153.3       90             90             92.279169     -2.2113559      0              0            
    398100   2843.1457      0.36748958    -6.6908585     -6.3233689      1616697.2      1633825.5      1630647.2      1585619        196153.05     -1458.8201      1374.6532      55.561705      40.644605      46.930639      342958.99      90             90             92.279741     -2.2119115      0              0            
    398200   2854.1484      0.36891174    -6.691611      -6.3226992      1615691.6      1630560.5      1627402.2      1589112.2      194721.16      1707.9758     -1682.4786      55.561705      40.644605      46.930639      339651.69      90             90             92.280313     -2.2124671      0              0            
    398300   2881.807       0.37248674    -6.6942743     -6.3217875      1615258.2      1635436.5      1624979.9      1585358.2      194924.33     -3117.1392      1056.6048      55.561705      40.644605      46.930639      340752.85      90             90             92.280885     -2.2130227      0              0            
    398400   2847.8184      0.36809355    -6.6890277     -6.3209342      1617587.5      1632361.3      1626294.5      1594106.8      192933.15      5297.4263     -3633.1202      55.561705      40.644605      46.930639      336246.22      90             90             92.281457     -2.2135783      0              0            
    398500   2865.7133      0.37040655    -6.6903413     -6.3199348      1617606.9      1637670.6      1620825.9      1594324.2      194348.01     -2545.3936      2458.6199      55.561705      40.644605      46.930639      338797.17      90             90             92.282029     -2.214134       0              0            
    398600   2853.5191      0.36883039    -6.6880362     -6.3192058      1617421.5      1631144.2      1638094.2      1583026.2      196193         7243.3524     -4003.2149      55.561705      40.644605      46.930639      344061.94      90             90             92.282601     -2.2146896      0              0            
    398700   2877.996       0.37199415    -6.6902209     -6.3182267      1616554.4      1633567.1      1615276.6      1600819.5      190783.63     -2185.5125      870.86859      55.561705      40.644605      46.930639      331692.27      90             90             92.283173     -2.2152452      0              0            
    398800   2887.0571      0.37316533    -6.6905331     -6.3173678      1615847.9      1628430.8      1632470.3      1586642.6      192759.38     -2178.4662      163.74172      55.561705      40.644605      46.930639      336770.28      90             90             92.283745     -2.2158008      0              0            
    398900   2880.6317      0.37233482    -6.6885354     -6.3162006      1617443.4      1634475        1619975.4      1597879.7      194862.89     -1406.9714      1697.768       55.561705      40.644605      46.930639      339039.91      90             90             92.284318     -2.2163564      0              0            
    399000   2882.7961      0.37261458    -6.6879959     -6.3153814      1619606.3      1634513        1629938.6      1594367.3      197582.99      1344.6628      2.0865597      55.561705      40.644605      46.930639      344342.12      90             90             92.28489      -2.216912       0              0            
    399100   2862.8441      0.37003569    -6.6847175     -6.3146818      1620102.5      1634142.5      1633415.9      1592749.1      194366.36      2064.1774      1367.2973      55.561705      40.644605      46.930639      339171.2       90             90             92.285462     -2.2174677      0              0            
    399200   2884.5842      0.3728457     -6.6868173     -6.3139716      1619756.5      1636694.9      1628177.4      1594397.3      193162.31     -2194.4046      1125.0312      55.561705      40.644605      46.930639      336830.29      90             90             92.286034     -2.2180233      0              0            
    399300   2896.7163      0.37441382    -6.6875765     -6.3131626      1619605.2      1641323.1      1626255.3      1591237.4      198652.05      2600.1551     -3464.1789      55.561705      40.644605      46.930639      347023.25      90             90             92.286606     -2.2185789      0              0            
    399400   2895.3771      0.37424073    -6.6865104     -6.3122696      1618598        1632172        1631385.5      1592236.5      190594.4      -581.4188       1029.4587      55.561705      40.644605      46.930639      332485.98      90             90             92.287178     -2.2191345      0              0            
    399500   2907.9543      0.37586639    -6.6872753     -6.3114089      1618197.8      1644534.4      1619167        1590891.9      198537.06     -938.37911     -705.16917      55.561705      40.644605      46.930639      347009.05      90             90             92.28775      -2.2196901      0              0            
    399600   2900.563       0.37491104    -6.6854154     -6.3105044      1621119.4      1637906        1636911.1      1588541.1      196257.58      1466.151      -1665.7691      55.561705      40.644605      46.930639      343445.27      90             90             92.288322     -2.2202457      0              0            
    399700   2887.1589      0.37317849    -6.682789      -6.3096105      1623178.1      1643534.5      1631251        1594748.8      197574.08     -163.18471      663.29082      55.561705      40.644605      46.930639      345021.18      90             90             92.288894     -2.2208014      0              0            
    399800   2915.0497      0.37678351    -6.6856123     -6.3088288      1620581.1      1636570.9      1629313.9      1595858.4      192960.62      227.33626     -175.67331      55.561705      40.644605      46.930639      336327.78      90             90             92.289466     -2.221357       0              0            
    399900   2919.5266      0.37736216    -6.6850813     -6.3077192      1621151.2      1639358.6      1631765.1      1592330        195522.17      1382.9134     -454.55092      55.561705      40.644605      46.930639      341475.25      90             90             92.290038     -2.2219126      0              0            
    400000   2913.8977      0.37663461    -6.6833172     -6.3066826      1622589.9      1634556.6      1633591.5      1599621.5      190184         1527.8521      335.91908      55.561705      40.644605      46.930639      331217.27      90             90             92.29061      -2.2224682      0              0            
    400100   2908.6172      0.37595208    -6.6815898     -6.3056378      1621235.6      1644784.3      1628706.4      1590216.1      198020.07     -2103.8139      2989.8942      55.561705      40.644605      46.930639      346460.36      90             90             92.291182     -2.2230238      0              0            
    400200   2922.3272      0.37772415    -6.6823308     -6.3046067      1623247.7      1634341.6      1634943.1      1600458.3      192120.27      4455.12       -1588.2104      55.561705      40.644605      46.930639      334614         90             90             92.291754     -2.2235794      0              0            
    400300   2921.047       0.37755868    -6.6813012     -6.3037425      1623001.7      1648255.1      1626549.5      1594200.5      201114.52      448.09613      1520.2302      55.561705      40.644605      46.930639      351523.02      90             90             92.292326     -2.2241351      0              0            
    400400   2946.9143      0.38090215    -6.6835087     -6.3026065      1623465.4      1640225.5      1637662.1      1592508.5      195658.65      4603.1974     -3276.4938      55.561705      40.644605      46.930639      342204.41      90             90             92.292898     -2.2246907      0              0            
    400500   2926.1168      0.37821397    -6.6795332     -6.3013192      1623721.9      1636062.3      1635532.8      1599570.7      193256.54     -2687.4201     -470.37258      55.561705      40.644605      46.930639      336718.27      90             90             92.29347      -2.2252463      0              0            
    400600   2927.3493      0.37837329    -6.678664      -6.3002907      1625239.5      1643877.3      1633842.7      1597998.5      199432.46      2677.5652     -1801.9887      55.561705      40.644605      46.930639      347989         90             90             92.294042     -2.2258019      0              0            
    400700   2945.1714      0.38067687    -6.6798936     -6.2992167      1623620.7      1633025.9      1637893.1      1599943        190780.82     -1190.3457      333.63041      55.561705      40.644605      46.930639      332378.91      90             90             92.294614     -2.2263575      0              0            
    400800   2939.8943      0.37999479    -6.678158      -6.2981632      1628199.1      1656945.8      1632336.6      1595315        203571.2      -4825.6214      2849.1879      55.561705      40.644605      46.930639      356798.54      90             90             92.295186     -2.2269131      0              0            
    400900   2964.3587      0.38315691    -6.6805987     -6.2974417      1621752.2      1628307.5      1634863.9      1602085.3      187037.64      4175.061      -1661.2904      55.561705      40.644605      46.930639      325441.73      90             90             92.295758     -2.2274688      0              0            
    401000   2944.6403      0.38060823    -6.6767568     -6.2961486      1624118.7      1647716.7      1629796.5      1594843        199242.42     -2146.821       1340.9843      55.561705      40.644605      46.930639      348254.36      90             90             92.29633      -2.2280244      0              0            
    401100   2962.0047      0.38285265    -6.6779242     -6.2950715      1625906.2      1639576.8      1640210.5      1597931.2      193355.39      6672.4565     -3717.1544      55.561705      40.644605      46.930639      337779.65      90             90             92.296902     -2.22858        0              0            
    401200   2990.8682      0.3865834     -6.6807743     -6.2941909      1627126.1      1647077.7      1634506        1599794.6      201507.44     -3825.9072      1609.6462      55.561705      40.644605      46.930639      351662.83      90             90             92.297475     -2.2291356      0              0            
    401300   2971.411       0.38406847    -6.6773202     -6.2932517      1624481        1632158.8      1642938.8      1598345.3      190622.87      6578.9409     -3181.6665      55.561705      40.644605      46.930639      332859.61      90             90             92.298047     -2.2296912      0              0            
    401400   2955.0667      0.38195589    -6.6741977     -6.2922418      1629214.1      1656543.6      1634139.2      1596959.5      204086.43      2955.768       384.17702      55.561705      40.644605      46.930639      357348.21      90             90             92.298619     -2.2302468      0              0            
    401500   2984.4103      0.38574867    -6.6772803     -6.2915316      1625521.3      1639636.7      1636268        1600659.2      190341.75     -1889.9518      1049.0384      55.561705      40.644605      46.930639      331818.11      90             90             92.299191     -2.2308025      0              0            
    401600   2973.4163      0.38432766    -6.6747507     -6.290423       1630657.3      1648975.1      1640709.2      1602287.7      200754.23      9745.7322     -1859.9559      55.561705      40.644605      46.930639      350805.11      90             90             92.299763     -2.2313581      0              0            
    401700   2978.2047      0.38494658    -6.6742641     -6.2893176      1627655.3      1648538        1639911        1594516.8      200611.26     -3517.0363      2364.2341      55.561705      40.644605      46.930639      351162.62      90             90             92.300335     -2.2319137      0              0            
    401800   2983.0485      0.38557266    -6.6738274     -6.2882547      1629293.7      1644028.9      1640532        1603320.2      195950.02      1722.9193     -2769.9545      55.561705      40.644605      46.930639      341684.39      90             90             92.300907     -2.2324693      0              0            
    401900   2988.9523      0.38633575    -6.673373      -6.2870373      1631834.1      1653143.2      1642473.7      1599885.3      198725.59     -6059.8667      3659.7252      55.561705      40.644605      46.930639      347861.95      90             90             92.301479     -2.2330249      0              0            
Fix halt condition for fix-id STOP met on step 402000 with value 3002.7047378266457
    402000   3002.7047      0.38811332    -6.6740142     -6.2859009      1629559.5      1651698.8      1636522.7      1600457.1      197584.43      3527.012      -3556.2189      55.561705      40.644605      46.930639      345358.45      90             90             92.302051     -2.2335805      0              0            
Loop time of 2977.95 on 6 procs for 402000 steps with 23200 atoms

Performance: 11.663 ns/day, 2.058 hours/ns, 134.992 timesteps/s, 3.132 Matom-step/s
99.2% CPU use with 6 MPI tasks x 1 OpenMP threads

MPI task timing breakdown:
Section |  min time  |  avg time  |  max time  |%varavg| %total
---------------------------------------------------------------
Pair    | 2675.1     | 2745.7     | 2858.1     | 148.1 | 92.20
Neigh   | 0.045019   | 0.048213   | 0.052361   |   1.3 |  0.00
Comm    | 91.526     | 203.82     | 272.74     | 535.0 |  6.84
Output  | 0.79982    | 0.84985    | 0.96608    |   5.9 |  0.03
Modify  | 15.196     | 15.538     | 16.224     |   8.9 |  0.52
Other   |            | 12.01      |            |       |  0.40

Nlocal:        3866.67 ave        4008 max        3793 min
Histogram: 4 0 0 0 0 0 0 0 0 2
Nghost:        5183.83 ave        5281 max        5115 min
Histogram: 3 0 0 1 0 0 0 0 0 2
Neighs:              0 ave           0 max           0 min
Histogram: 6 0 0 0 0 0 0 0 0 0
FullNghs:       236499 ave      245512 max      231557 min
Histogram: 3 1 0 0 0 0 0 0 0 2

Total # of neighbors = 1418996
Ave neighs/atom = 61.163621
Neighbor list builds = 8
Dangerous builds = 0
undump OUT1
unfix DEFORM_FIX
write_data data_SFneg.final
System init for write_data ...
### FIN
Total wall time: 0:52:45
