LAMMPS (22 Jul 2025 - Update 3)
  using 1 OpenMP thread(s) per MPI task
Reading data file ...
  orthogonal box = (-122.7 -85 -85) to (122.7 85 85)
  3 by 1 by 2 MPI processor grid
  reading atoms ...
  28860 atoms
  reading velocities ...
  28860 velocities
  read_data CPU = 0.516 seconds
WARNING: No fixes with time integration, atoms won't move
For more information see https://docs.lammps.org/err0028 (src/verlet.cpp:60)
Setting up Verlet run ...
  Unit style    : metal
  Current step  : 0
  Time step     : 0.001
WARNING: No pairwise cutoff or binsize set. Atom sorting therefore disabled. (src/atom.cpp:2499)
WARNING: Communication cutoff is 0.0. No ghost atoms will be generated. Energies and forces may be wrong and atoms may get lost. (src/comm_brick.cpp:212)
Per MPI rank memory allocation (min/avg/max) = 2.297 | 2.297 | 2.297 Mbytes
   Step          Temp          E_pair         E_mol          TotEng         Press     
         0   298.51495      0              0              1113.5559      167.7099     
Loop time of 2.49667e-06 on 6 procs for 0 steps with 28860 atoms

100.1% CPU use with 6 MPI tasks x 1 OpenMP threads

MPI task timing breakdown:
Section |  min time  |  avg time  |  max time  |%varavg| %total
---------------------------------------------------------------
Pair    | 0          | 0          | 0          |   0.0 |  0.00
Neigh   | 0          | 0          | 0          |   0.0 |  0.00
Comm    | 0          | 0          | 0          |   0.0 |  0.00
Output  | 0          | 0          | 0          |   0.0 |  0.00
Modify  | 0          | 0          | 0          |   0.0 |  0.00
Other   |            | 2.497e-06  |            |       |100.00

Nlocal:           4810 ave        4945 max        4669 min
Histogram: 2 0 0 0 0 2 0 0 1 1
Nghost:              0 ave           0 max           0 min
Histogram: 6 0 0 0 0 0 0 0 0 0
Neighs:              0 ave           0 max           0 min
Histogram: 6 0 0 0 0 0 0 0 0 0

Total # of neighbors = 0
Ave neighs/atom = 0
Neighbor list builds = 0
Dangerous builds = 0
6331 atoms in group track
28362 atoms in group Nanowire
1801 atoms in group sinkL
1806 atoms in group sinkR
3607 atoms in group gSink
25253 atoms in group gInner
0 atoms in group track_in_sink
Reading eam potential file /home/santi/Documents/lammps2025/build/Ag_u3.eam with DATE: 2007-06-11
Neighbor list info ...
  update: every = 1 steps, delay = 0 steps, check = yes
  max neighbors/atom: 2000, page size: 100000
  master list distance cutoff = 7.55
  ghost atom cutoff = 7.55
  binsize = 3.775, bins = 66 46 46
  1 neighbor lists, perpetual/occasional/extra = 1 0 0
  (1) pair eam, perpetual
      attributes: half, newton on
      pair build: half/bin/atomonly/newton
      stencil: half/bin/3d
      bin: standard
Setting up cg style minimization ...
  Unit style    : metal
  Current step  : 0
Per MPI rank memory allocation (min/avg/max) = 6.17 | 6.363 | 6.557 Mbytes
   Step          Time           Temp          c_Tnw         c_Ttrack       c_Tinner       c_Tsink        v_ke_max        PotEng         KinEng         TotEng         Press     
         0   0              298.52049      298.42029      303.36225      299.44898      292.10123      0.33654194    -2.743455       0.038585465   -2.7048696      93.391344    
       210   0.21           298.52049      298.42029      303.36225      299.44898      292.10123      0.33654194    -2.7836451      0.038585465   -2.7450596      104.24217    
Loop time of 6.4704 on 6 procs for 210 steps with 28860 atoms

82.9% CPU use with 6 MPI tasks x 1 OpenMP threads

Minimization stats:
  Stopping criterion = energy tolerance
  Energy initial, next-to-last, final = 
     -2.74345504040487  -2.78364510454057  -2.78364510478683
  Force two-norm initial, final = 111.06563 0.0063874055
  Force max component initial, final = 1.8494183 9.5289977e-05
  Final line search alpha, max atom move = 1 9.5289977e-05
  Iterations, force evaluations = 210 414

MPI task timing breakdown:
Section |  min time  |  avg time  |  max time  |%varavg| %total
---------------------------------------------------------------
Pair    | 5.7522     | 5.7863     | 5.8227     |   0.9 | 89.43
Neigh   | 0          | 0          | 0          |   0.0 |  0.00
Comm    | 0.25819    | 0.28645    | 0.31038    |   4.1 |  4.43
Output  | 0          | 0          | 0          |   0.0 |  0.00
Modify  | 0          | 0          | 0          |   0.0 |  0.00
Other   |            | 0.3976     |            |       |  6.15

Nlocal:           4810 ave        4945 max        4669 min
Histogram: 2 0 0 0 0 2 0 0 1 1
Nghost:           2850 ave        2991 max        2715 min
Histogram: 1 1 0 0 2 0 0 0 0 2
Neighs:         199936 ave      219991 max      180078 min
Histogram: 1 1 1 0 0 0 0 1 1 1

Total # of neighbors = 1199616
Ave neighs/atom = 41.566736
Neighbor list builds = 0
Dangerous builds = 0
Setting up cg style minimization ...
  Unit style    : metal
  Current step  : 210
WARNING: Energy due to 3 extra global DOFs will be included in minimizer energies
 (src/min.cpp:222)
Per MPI rank memory allocation (min/avg/max) = 6.295 | 6.488 | 6.682 Mbytes
   Step          Time           Temp          c_Tnw         c_Ttrack       c_Tinner       c_Tsink        v_ke_max        PotEng         KinEng         TotEng         Press     
       210   0.21           298.52049      298.42029      303.36225      299.44898      292.10123      0.33654194    -2.7836451      0.038585465   -2.7450596      104.24217    
       238   0.238          298.52049      298.42029      303.36225      299.44898      292.10123      0.33654194    -2.7836833      0.038585465   -2.7450978      251.33438    
Loop time of 0.523189 on 6 procs for 28 steps with 28860 atoms

85.3% CPU use with 6 MPI tasks x 1 OpenMP threads

Minimization stats:
  Stopping criterion = energy tolerance
  Energy initial, next-to-last, final = 
     -2.78364510478683  -2.78368330705157  -2.78368330732027
  Force two-norm initial, final = 842.98457 1.2178605
  Force max component initial, final = 842.98457 1.1329645
  Final line search alpha, max atom move = 7.4912162e-05 8.4872821e-05
  Iterations, force evaluations = 28 32

MPI task timing breakdown:
Section |  min time  |  avg time  |  max time  |%varavg| %total
---------------------------------------------------------------
Pair    | 0.45842    | 0.46044    | 0.46156    |   0.2 | 88.01
Neigh   | 0          | 0          | 0          |   0.0 |  0.00
Comm    | 0.019175   | 0.022009   | 0.024712   |   1.1 |  4.21
Output  | 0          | 0          | 0          |   0.0 |  0.00
Modify  | 0          | 0          | 0          |   0.0 |  0.00
Other   |            | 0.04074    |            |       |  7.79

Nlocal:           4810 ave        4964 max        4595 min
Histogram: 1 0 0 0 2 0 1 0 0 2
Nghost:           2850 ave        3065 max        2696 min
Histogram: 2 0 0 1 0 2 0 0 0 1
Neighs:         186176 ave      205729 max      170288 min
Histogram: 2 0 1 0 0 1 0 1 0 1

Total # of neighbors = 1117054
Ave neighs/atom = 38.70596
Neighbor list builds = 0
Dangerous builds = 0
Setting up cg style minimization ...
  Unit style    : metal
  Current step  : 238
Per MPI rank memory allocation (min/avg/max) = 6.295 | 6.488 | 6.682 Mbytes
   Step          Time           Temp          c_Tnw         c_Ttrack       c_Tinner       c_Tsink        v_ke_max        PotEng         KinEng         TotEng         Press     
       238   0.238          298.52049      298.42029      303.36225      299.44898      292.10123      0.33654194    -2.7836833      0.038585465   -2.7450978      251.33438    
       263   0.263          298.52049      298.42029      303.36225      299.44898      292.10123      0.33654194    -2.7837011      0.038585465   -2.7451156      133.26134    
Loop time of 0.83731 on 6 procs for 25 steps with 28860 atoms

81.3% CPU use with 6 MPI tasks x 1 OpenMP threads

Minimization stats:
  Stopping criterion = energy tolerance
  Energy initial, next-to-last, final = 
     -2.78368330732028  -2.78370111068523  -2.78370111087205
  Force two-norm initial, final = 0.44673891 0.0046503578
  Force max component initial, final = 0.0069219417 0.00013871626
  Final line search alpha, max atom move = 1 0.00013871626
  Iterations, force evaluations = 25 50

MPI task timing breakdown:
Section |  min time  |  avg time  |  max time  |%varavg| %total
---------------------------------------------------------------
Pair    | 0.73441    | 0.73739    | 0.74329    |   0.4 | 88.07
Neigh   | 0          | 0          | 0          |   0.0 |  0.00
Comm    | 0.027674   | 0.038832   | 0.049714   |   4.5 |  4.64
Output  | 0          | 0          | 0          |   0.0 |  0.00
Modify  | 0          | 0          | 0          |   0.0 |  0.00
Other   |            | 0.06109    |            |       |  7.30

Nlocal:           4810 ave        4963 max        4596 min
Histogram: 1 0 0 0 2 0 1 0 0 2
Nghost:           2850 ave        3064 max        2697 min
Histogram: 2 0 0 1 0 2 0 0 0 1
Neighs:         186328 ave      205765 max      170516 min
Histogram: 1 1 1 0 0 1 0 1 0 1

Total # of neighbors = 1117970
Ave neighs/atom = 38.737699
Neighbor list builds = 0
Dangerous builds = 0
Setting up Verlet run ...
  Unit style    : metal
  Current step  : 263
  Time step     : 0.001
Per MPI rank memory allocation (min/avg/max) = 5.17 | 5.363 | 5.557 Mbytes
   Step          Time           Temp          c_Tnw         c_Ttrack       c_Tinner       c_Tsink        v_ke_max        PotEng         KinEng         TotEng         Press     
       263   0              300            300.22281      302.813        300.34265      297.68367      0.28202013    -2.7837011      0.0387767     -2.7449244      134.09461    
       500   0.237          175.17286      175.1422       176.82564      174.6815       178.66233      0.20054143    -2.7595298      0.022642084   -2.7368878      401.5509     
      1000   0.737          227.03381      227.05198      225.87155      226.96141      227.60379      0.20083711    -2.7538744      0.029345406   -2.724529      -48.567175    
      1500   1.237          251.90209      251.8721       251.16852      251.82388      252.51958      0.24713546    -2.7493766      0.032559772   -2.7168168     -267.36297    
      2000   1.737          274.12285      274.41609      274.53329      275.13751      267.09343      0.28084372    -2.7474278      0.035431931   -2.7119959      60.905442    
      2500   2.237          284.26362      284.61411      285.98749      283.76535      287.83168      0.2687742     -2.7461266      0.036742683   -2.7093839      181.28926    
      3000   2.737          287.62974      287.58145      288.55325      287.11443      291.31805      0.32229865    -2.744831       0.037177773   -2.7076533      17.235156    
      3500   3.237          291.93925      291.77855      289.27686      292.34406      289.18541      0.28967954    -2.7442115      0.037734803   -2.7064767     -46.484853    
      4000   3.737          296.81111      296.91268      295.14679      297.63615      291.11591      0.30692395    -2.7438669      0.038364518   -2.7055023      28.61389     
      4500   4.237          299.42408      299.33603      299.70948      300.47204      292.16849      0.34512993    -2.743638       0.038702258   -2.7049358      70.784664    
      5000   4.737          300.4882       300.66931      301.33895      301.64461      292.47346      0.34577346    -2.7431555      0.038839802   -2.7043157      60.057397    
      5500   5.237          302.13092      302.2349       302.37027      302.05991      302.71198      0.31636116    -2.7431573      0.039052133   -2.7041051      13.922586    
      6000   5.737          302.39428      302.48745      299.38683      303.33964      295.85799      0.28086461    -2.7432236      0.039086175   -2.7041375      5.7485866    
      6500   6.237          302.51294      302.83209      306.10176      302.87851      300.03679      0.32825164    -2.7428217      0.039101511   -2.7037202      22.343845    
      7000   6.737          301.9973       302.22361      302.64112      302.16915      300.8776       0.29653987    -2.7429523      0.039034862   -2.7039174      11.740961    
      7500   7.237          300.91182      300.79904      300.22084      300.94989      300.72868      0.30884687    -2.7432422      0.038894557   -2.7043476      49.617711    
      8000   7.737          298.76134      298.56875      295.54297      299.28863      295.15171      0.40631794    -2.7434834      0.038616596   -2.7048668      21.624588    
      8500   8.237          298.91152      298.89112      296.70792      299.36892      295.79138      0.26703541    -2.7436005      0.038636008   -2.7049645      30.716845    
      9000   8.737          299.94766      300.06207      302.12867      299.44882      303.52409      0.44539314    -2.7437012      0.038769934   -2.7049312      54.064429    
      9500   9.237          300.57109      300.45736      300.25926      300.26992      302.76352      0.30771652    -2.7431439      0.038850517   -2.7042934      14.672075    
     10000   9.737          299.26532      299.28081      301.57887      297.8623       309.17332      0.347639      -2.743276       0.038681738   -2.7045943     -5.9842603    
     10500   10.237         299.10476      299.26265      298.71066      299.1429       298.92064      0.32295005    -2.7434359      0.038660985   -2.7047749      32.162981    
     11000   10.737         297.88135      297.98458      296.07563      297.88547      297.93511      0.292619      -2.7434102      0.038502852   -2.7049074      27.895128    
     11500   11.237         297.20252      297.53753      301.87497      297.78538      293.20326      0.3323406     -2.7432649      0.038415109   -2.7048498     -9.1654009    
     12000   11.737         299.68156      299.9841       295.83212      299.32365      302.27108      0.28101057    -2.7435648      0.03873554    -2.7048292      21.723529    
     12500   12.237         300.12494      299.90678      297.34765      300.06971      300.59494      0.28295717    -2.7432995      0.038792849   -2.7045067      12.803424    
     13000   12.737         300.46948      300.36801      302.53524      300.50317      300.3169       0.2913234     -2.7434302      0.038837383   -2.7045928      7.7228939    
     13500   13.237         299.93681      300.20146      298.89057      300.34916      297.13237      0.42643699    -2.7433433      0.038768532   -2.7045747      10.342025    
     14000   13.737         297.41634      297.43479      301.3657       297.07687      299.87606      0.45512029    -2.7430268      0.038442747   -2.704584       33.863685    
     14500   14.237         300.24706      300.22776      300.72414      298.97442      309.2423       0.29953277    -2.743005       0.038808634   -2.7041964      21.20221     
     15000   14.737         300.18516      300.27228      298.31504      299.20165      307.15573      0.30753896    -2.7433351      0.038800633   -2.7045344     -6.4465078    
     15500   15.237         302.17431      302.23478      304.46723      301.77729      305.03837      0.43195213    -2.7433936      0.039057742   -2.7043359      33.83448     
     16000   15.737         302.13761      301.86671      307.30156      302.88625      296.97886      0.26194746    -2.7435719      0.039052998   -2.7045189      44.221413    
     16500   16.237         297.92398      297.86896      301.22468      298.07331      296.96089      0.31499099    -2.7431491      0.038508363   -2.7046408      38.659562    
     17000   16.737         301.34774      301.59706      301.99598      300.99937      303.87085      0.31486028    -2.7432718      0.038950903   -2.7043209     -3.0317538    
     17500   17.237         301.97874      302.21936      301.98994      301.79872      303.32309      0.29717723    -2.7431631      0.039032463   -2.7041306     -8.0269329    
     18000   17.737         302.3915       302.65252      303.74617      302.00193      305.20348      0.34244327    -2.7431997      0.039085815   -2.7041139      59.489219    
     18500   18.237         301.66884      301.55435      303.89647      302.29244      297.38557      0.25854876    -2.7432271      0.038992407   -2.7042347      26.446403    
     19000   18.737         300.99608      301.14871      298.11782      301.29041      299.01844      0.28645162    -2.7430785      0.038905449   -2.704173       13.680173    
     19500   19.237         299.54905      299.36934      296.75668      298.32832      308.18057      0.31294954    -2.743291       0.038718412   -2.7045725      19.660682    
     20000   19.737         299.27507      299.34366      299.234        299.2604       299.46079      0.30723535    -2.7432619      0.038682998   -2.7045789     -4.2155224    
     20263   20             301.07313      301.02304      296.93403      301.45614      298.47445      0.27898631    -2.743293       0.038915408   -2.7043776      18.418       
Loop time of 368.723 on 6 procs for 20000 steps with 28860 atoms

Performance: 4.686 ns/day, 5.121 hours/ns, 54.241 timesteps/s, 1.565 Matom-step/s
78.4% CPU use with 6 MPI tasks x 1 OpenMP threads

MPI task timing breakdown:
Section |  min time  |  avg time  |  max time  |%varavg| %total
---------------------------------------------------------------
Pair    | 229.54     | 237.88     | 244.59     |  32.7 | 64.51
Neigh   | 0          | 0          | 0          |   0.0 |  0.00
Comm    | 94.093     | 100.24     | 108.02     |  50.4 | 27.19
Output  | 0.1514     | 0.16122    | 0.17148    |   1.6 |  0.04
Modify  | 6.5827     | 6.8463     | 7.3867     |  10.9 |  1.86
Other   |            | 23.59      |            |       |  6.40

Nlocal:           4810 ave        4968 max        4604 min
Histogram: 1 0 0 1 1 0 1 0 0 2
Nghost:           2850 ave        3056 max        2692 min
Histogram: 2 0 0 1 0 1 1 0 0 1
Neighs:         185853 ave      205409 max      169436 min
Histogram: 1 1 1 0 0 1 0 1 0 1

Total # of neighbors = 1115118
Ave neighs/atom = 38.638877
Neighbor list builds = 0
Dangerous builds = 0
Setting up Verlet run ...
  Unit style    : metal
  Current step  : 0
  Time step     : 0.0001
Per MPI rank memory allocation (min/avg/max) = 5.978 | 6.18 | 6.375 Mbytes
   Step          Time           Temp          c_Tnw         c_Ttrack       c_Tinner       c_Tsink        v_ke_max        PotEng         KinEng         TotEng         Press     
         0   0              301.07313      301.02304      296.93403      301.45614      298.47445      0.27898631    -2.743293       0.038915408   -2.7043776      18.418       
       500   0.05           872.62428      872.06415      2900           954.06279      302.57088      3.0972723     -2.7106558      0.11279163    -2.5978641      1185.449     
      1000   0.1            1457.7985      1448.7056      5500           1622.6014      304.12538      8.7043085     -2.6372457      0.18842872    -2.448817       3112.3116    
Loop time of 22.9939 on 6 procs for 1000 steps with 28860 atoms

Performance: 0.376 ns/day, 63.872 hours/ns, 43.490 timesteps/s, 1.255 Matom-step/s
77.9% CPU use with 6 MPI tasks x 1 OpenMP threads

MPI task timing breakdown:
Section |  min time  |  avg time  |  max time  |%varavg| %total
---------------------------------------------------------------
Pair    | 12.626     | 13.171     | 13.791     |  10.6 | 57.28
Neigh   | 0.014537   | 0.020865   | 0.032588   |   4.2 |  0.09
Comm    | 4.6452     | 5.2479     | 5.7208     |  15.6 | 22.82
Output  | 0.0002865  | 0.00033977 | 0.00057293 |   0.0 |  0.00
Modify  | 3.9324     | 3.9853     | 4.0619     |   2.5 | 17.33
Other   |            | 0.5689     |            |       |  2.47

Nlocal:           4810 ave        4910 max        4723 min
Histogram: 1 0 2 0 0 0 2 0 0 1
Nghost:           2852 ave        2937 max        2750 min
Histogram: 1 0 0 2 0 0 0 2 0 1
Neighs:         203991 ave      228657 max      182584 min
Histogram: 2 0 0 1 0 0 1 1 0 1

Total # of neighbors = 1223945
Ave neighs/atom = 42.409737
Neighbor list builds = 2
Dangerous builds = 0
Setting up Verlet run ...
  Unit style    : metal
  Current step  : 1000
  Time step     : 0.0001
Per MPI rank memory allocation (min/avg/max) = 5.994 | 6.243 | 6.375 Mbytes
   Step          Time           Temp          c_Tnw         c_Ttrack       c_Tinner       c_Tsink        v_ke_max        PotEng         KinEng         TotEng         Press     
      1000   0.1            1457.7985      1448.7056      5500           1622.6014      304.12538      8.7043085     -2.6372457      0.18842872    -2.448817       3112.3116    
      1500   0.15           1326.1533      1315.3817      4829.0988      1471.4912      308.75324      10.175538     -2.6212177      0.17141283    -2.4498048      3190.3908    
      2000   0.2            1325.1921      1313.0807      4754.6892      1471.6274      300.10639      10.34229      -2.6221168      0.17128859    -2.4508282      2898.3475    
      2500   0.25           1324.0956      1315.7543      4673.8883      1470.2421      301.03188      7.3898529     -2.6229745      0.17114685    -2.4518277      2605.8294    
      3000   0.3            1311.0457      1303.0679      4592.9642      1455.1672      302.15876      6.5849347     -2.6221887      0.16946008    -2.4527286      2347.6588    
      3500   0.35           1316.7265      1309.4057      4566.2165      1460.7126      308.78951      6.5462192     -2.6238473      0.17019436    -2.453653       2038.9295    
      4000   0.4            1306.7972      1301.5631      4480.6576      1450.2908      302.30624      6.14676       -2.6236997      0.16891094    -2.4547888      1771.6521    
      4500   0.45           1291.622       1286.7146      4401.8919      1432.9811      302.07487      6.1072787     -2.6226755      0.16694947    -2.455726       1504.7781    
      5000   0.5            1276.5453      1270.8496      4311.0925      1415.1345      306.39038      5.9979424     -2.6216116      0.16500071    -2.4566108      1218.9759    
      5500   0.55           1269.4293      1264.8322      4254.5567      1407.4186      303.4734       5.9565078     -2.6217472      0.16408093    -2.4576662      925.44777    
      6000   0.6            1241.4467      1238.3018      4119.9407      1375.3052      304.41036      5.8868266     -2.6190401      0.16046403    -2.4585761      721.01242    
      6500   0.65           1223.6798      1221.5849      4024.2695      1355.6967      299.53463      5.9012878     -2.6175384      0.15816754    -2.4593709      502.96181    
      7000   0.7            1187.8658      1185.2152      3867.2942      1313.9248      305.43269      5.7773694     -2.6138749      0.15353839    -2.4603365      361.84068    
      7500   0.75           1163.919       1162.6541      3745.4457      1286.7544      304.05303      5.7947735     -2.6115784      0.15044312    -2.4611353      186.82761    
      8000   0.8            1128.2674      1126.9274      3600.7654      1246.2721      302.22016      5.8069915     -2.6078637      0.14583496    -2.4620287      52.387257    
      8500   0.85           1092.8013      1092.3682      3452.8194      1206.0106      300.32494      5.7652735     -2.604064       0.14125076    -2.4628133     -73.090671    
      9000   0.9            1068.7396      1067.896       3352.4868      1178.3698      301.32083      5.7652368     -2.601686       0.13814065    -2.4635453     -204.82404    
      9500   0.95           1040.4359      1038.0641      3224.9359      1146.7585      296.17125      5.7651285     -2.5989145      0.13448223    -2.4644322     -299.54272    
     10000   1              1013.6735      1012.1076      3126.0719      1115.9037      298.05959      5.8116911     -2.596215       0.13102304    -2.4651919     -378.43731    
     10500   1.05           996.51784      994.78241      3061.7645      1095.4421      304.04967      5.811247      -2.5945113      0.12880558    -2.4657057     -477.10801    
     11000   1.1            972.95708      971.58733      2985.5124      1069.7213      295.60897      5.8162506     -2.5922288      0.12576022    -2.4664686     -529.71055    
     11500   1.15           957.69526      954.41836      2918.4236      1051.4997      301.06965      5.7650591     -2.5908578      0.12378754    -2.4670702     -585.4676     
     12000   1.2            942.18355      938.98957      2862.3692      1033.3696      303.88988      5.6920286     -2.58947        0.12178256    -2.4676875     -655.71313    
     12500   1.25           919.05352      916.30896      2782.167       1007.7825      297.95959      5.6220848     -2.5870007      0.11879287    -2.4682078     -675.99097    
     13000   1.3            914.22727      911.7803       2755.1605      1001.456       303.63812      5.6203209     -2.5870267      0.11816906    -2.4688577     -715.35851    
     13500   1.35           898.24502      896.04136      2703.1321      983.71847      299.94295      5.5805452     -2.5855701      0.11610326    -2.4694668     -699.21617    
     14000   1.4            896.41441      894.46369      2690.4623      981.0336       304.09407      5.5570261     -2.5858315      0.11586664    -2.4699649     -708.31702    
     14500   1.45           881.58748      880.16648      2652.7099      964.07611      304.18279      5.4781571     -2.5844459      0.11395018    -2.4704957     -704.65552    
     15000   1.5            873.57792      872.40583      2622.0872      955.62401      299.27004      5.514296      -2.5840194      0.1129149     -2.4711045     -716.83597    
     15500   1.55           867.28755      866.40119      2592.6277      949.51384      291.71604      5.4593894     -2.5838673      0.11210183    -2.4717655     -679.66271    
     16000   1.6            866.56566      865.58738      2578.942       947.20948      302.07562      5.4116486     -2.5841298      0.11200852    -2.4721212     -640.15801    
     16500   1.65           861.56168      859.97912      2570.0814      941.7596       300.19273      5.3440217     -2.5840635      0.11136173    -2.4727017     -594.39618    
     17000   1.7            860.49519      859.15829      2549.0129      940.70054      299.07397      5.3829732     -2.584363       0.11122388    -2.4731392     -559.77647    
     17500   1.75           858.58016      857.41686      2533.7373      937.5134       306.06663      5.390201      -2.5846495      0.11097635    -2.4736731     -509.83908    
     18000   1.8            852.01367      851.34711      2498.9975      930.64708      301.59804      5.4039843     -2.5844455      0.11012759    -2.4743179     -436.58383    
     18500   1.85           848.56092      847.95338      2483.8792      926.79513      300.93976      5.3525347     -2.5845244      0.10968131    -2.4748431     -372.6647     
     19000   1.9            851.68664      851.27959      2473.7011      930.16896      302.32892      5.325701      -2.5854927      0.11008532    -2.4754074     -341.34127    
     19500   1.95           846.94307      846.99871      2449.6983      925.62057      296.21725      5.2126167     -2.5854152      0.10947219    -2.475943      -253.47878    
     20000   2              849.6672       850.28903      2442.7163      927.81779      302.63195      5.173395      -2.5861767      0.1098243     -2.4763524     -162.68018    
     20500   2.05           851.45259      852.95772      2452.2546      930.94371      295.03039      5.1885099     -2.5870667      0.11005507    -2.4770116     -96.42314     
     21000   2.1            856.24766      855.45419      2441.8511      935.15191      303.93653      5.1017462     -2.5880967      0.11067486    -2.4774218     -23.07068     
     21500   2.15           852.25087      851.76485      2412.6342      930.8704       301.93248      4.9863066     -2.5881535      0.11015825    -2.4779952      100.5495     
     22000   2.2            856.88193      857.21346      2424.4858      936.74868      297.83081      4.9884204     -2.5892779      0.11075684    -2.4785211      146.92705    
     22500   2.25           852.83232      852.36377      2410.4342      931.43428      302.63709      4.9943801     -2.5892255      0.11023341    -2.4789921      182.51427    
     23000   2.3            849.83737      849.87015      2388.1213      928.88724      296.50478      5.0579143     -2.5893384      0.1098463     -2.4794921      261.02286    
     23500   2.35           851.10441      851.91839      2383.0269      929.59139      301.71395      5.0388618     -2.5899634      0.11001007    -2.4799533      338.96442    
     24000   2.4            851.37782      852.55092      2377.7614      929.79697      302.46237      4.9859404     -2.5906383      0.11004541    -2.4805929      368.56959    
     24500   2.45           848.6325       849.44753      2371.5595      926.60136      302.86963      4.991682      -2.5906844      0.10969056    -2.4809938      359.17973    
     25000   2.5            842.48341      843.57852      2346.8339      919.37651      304.25212      4.9307444     -2.590334       0.10889575    -2.4814382      387.96308    
     25500   2.55           838.80008      838.89519      2327.35        915.38969      302.69308      4.8905997     -2.5903073      0.10841966    -2.4818876      395.40389    
     26000   2.6            834.72904      835.47114      2310.7968      910.27885      305.90233      4.9304142     -2.5903861      0.10789346    -2.4824927      368.87101    
     26500   2.65           834.46179      834.14385      2308.2958      911.16997      297.5232       4.8455581     -2.5910375      0.10785891    -2.4831786      363.80532    
     27000   2.7            826.76347      826.41838      2272.5495      901.98392      300.24098      4.8258229     -2.5905028      0.10686386    -2.483639       400.50663    
     27500   2.75           827.4917       825.8392       2269.8745      902.88257      299.77597      4.8583        -2.5910491      0.10695799    -2.4840911      342.30878    
     28000   2.8            826.50859      825.422        2276.5501      901.6144       300.78881      4.7652809     -2.5915596      0.10683092    -2.4847287      268.00997    
     28500   2.85           821.40831      820.24155      2256.7792      896.61666      294.9691       4.7775346     -2.5914234      0.10617168    -2.4852517      235.294      
     29000   2.9            820.79613      819.0497       2231.1651      894.80427      302.76158      4.6996256     -2.5918129      0.10609255    -2.4857204      179.26619    
     29500   2.95           816.07099      814.34607      2220.4448      888.92255      306.13434      4.7135746     -2.5917043      0.1054818     -2.4862225      128.09447    
     30000   3              813.18246      811.33354      2206.5551      886.3541       301.00363      4.6549947     -2.5917968      0.10510844    -2.4866884      57.781613    
     30500   3.05           809.94128      808.48551      2187.467       881.63647      308.10079      4.6292495     -2.5918341      0.1046895     -2.4871446     -23.874588    
     31000   3.1            807.03234      805.21823      2172.3703      878.84806      304.34692      4.6543778     -2.5919288      0.1043135     -2.4876153     -83.527948    
     31500   3.15           806.49816      804.29426      2182.2438      878.28583      304.00903      4.5753225     -2.592357       0.10424446    -2.4881125     -151.3302     
     32000   3.2            805.45081      803.83859      2169.8891      877.96694      297.86019      4.5249284     -2.5927718      0.10410908    -2.4886627     -214.29499    
     32500   3.25           802.38826      801.55692      2156.9538      874.2814       299.15944      4.4468639     -2.5928759      0.10371323    -2.4891627     -248.0216     
     33000   3.3            798.78914      798.80958      2138.2882      869.96947      300.55092      4.4817973     -2.5928185      0.10324802    -2.4895705     -296.9597     
     33500   3.35           797.77902      798.10189      2133.1337      869.18041      297.99255      4.385958      -2.5931326      0.10311746    -2.4900151     -380.86091    
     34000   3.4            789.60461      788.88371      2088.8365      859.04312      303.56141      4.3382914     -2.5925206      0.10206087    -2.4904597     -413.22509    
     34500   3.45           786.89642      786.90269      2097.5414      857.2015       294.78414      4.3997276     -2.5926401      0.10171082    -2.4909292     -429.76138    
     35000   3.5            789.52918      789.2656       2086.3263      859.51316      299.66619      4.4043292     -2.5934464      0.10205112    -2.4913953     -454.35303    
     35500   3.55           789.18966      789.20094      2103.5872      859.51774      296.91686      4.3797471     -2.5939448      0.10200723    -2.4919376     -440.35844    
     36000   3.6            784.36909      783.9096       2079.83        853.23022      302.36772      4.3154477     -2.5936117      0.10138415    -2.4922275     -398.91563    
     36500   3.65           788.35301      787.59485      2094.2951      858.01726      300.7287       4.2875045     -2.5945608      0.10189909    -2.4926617     -405.73941    
     37000   3.7            781.91507      781.63944      2085.9301      850.80579      299.70588      4.2091175     -2.5940807      0.10106695    -2.4930137     -374.00603    
     37500   3.75           786.75486      786.40053      2071.7497      855.4478       305.93194      4.2083302     -2.5950217      0.10169252    -2.4933291     -332.87333    
     38000   3.8            785.33411      784.70768      2056.4019      853.0171       311.58325      4.1423413     -2.5953809      0.10150888    -2.493872      -270.18953    
     38500   3.85           783.39725      782.94732      2055.1345      853.03066      295.98755      4.0971346     -2.595693       0.10125853    -2.4944345     -234.80403    
     39000   3.9            777.13303      777.42923      2035.8196      845.25627      300.29692      4.0556567     -2.5954445      0.10044885    -2.4949957     -181.14719    
     39500   3.95           777.67322      777.747        2034.1381      845.85779      300.40781      4.0491177     -2.5959584      0.10051867    -2.4954397     -138.63197    
     40000   4              774.69055      774.83778      2015.0836      843.57149      292.54778      4.0273051     -2.5960181      0.10013314    -2.495885      -101.41464    
     40500   4.05           782.05544      781.11608      2027.0886      850.12615      305.58859      4.0036381     -2.5971678      0.1010851     -2.4960827     -65.621546    
     41000   4.1            784.22181      783.93392      2031.9721      852.94554      303.1826       3.9620141     -2.5977981      0.10136511    -2.496433      -6.160819     
     41500   4.15           780.79434      781.30245      2016.7576      848.92134      303.93294      3.9835968     -2.5978616      0.10092209    -2.4969395      78.690614    
     42000   4.2            784.2052       784.25836      2015.2601      852.88792      303.45311      3.9889233     -2.5988693      0.10136296    -2.4975064      101.87087    
     42500   4.25           776.55491      776.33716      1983.2429      844.66256      299.82789      3.9702163     -2.5983169      0.10037412    -2.4979428      154.13156    
     43000   4.3            782.14619      781.74661      2007.72        850.44433      304.08669      4.1562231     -2.5994201      0.10109683    -2.4983233      197.53566    
     43500   4.35           781.9818       780.65843      1985.2403      850.25914      304.06792      5.6173649     -2.5999976      0.10107558    -2.4989221      256.69172    
     44000   4.4            777.67575      777.24491      1956.7677      846.12033      298.58952      3.2608784     -2.5999963      0.100519      -2.4994774      298.32396    
     44500   4.45           775.80431      775.82372      1954.3758      843.68963      300.6339       3.0925672     -2.6000581      0.1002771     -2.499781       344.25973    
     45000   4.5            774.72383      775.19096      1946.687       841.90632      304.47492      3.0953421     -2.6004641      0.10013744    -2.5003267      375.20968    
     45500   4.55           772.79137      773.23887      1939.7795      839.86577      303.29891      3.0970389     -2.6007146      0.099887664   -2.5008269      375.70106    
     46000   4.6            771.56641      771.81407      1936.384       838.85028      300.6067       3.0329419     -2.6009361      0.09972933    -2.5012068      364.00841    
     46500   4.65           766.82         767.27996      1922.3268      833.0361       303.33636      3.0416887     -2.6006967      0.09911583    -2.5015809      361.51789    
     47000   4.7            765.80122      766.21486      1911.1477      832.13827      301.47026      2.928954      -2.6010898      0.098984146   -2.5021056      342.17597    
     47500   4.75           769.16213      769.42585      1911.1077      835.54309      304.52463      2.874691      -2.6020203      0.099418564   -2.5026017      300.62823    
     48000   4.8            764.71476      764.56169      1893.6473      830.35643      305.25311      3.1502347     -2.6019692      0.098843716   -2.5031255      263.75834    
     48500   4.85           757.62412      757.655        1871.9037      823.95207      293.35466      2.8476989     -2.6013846      0.097927211   -2.5034574      241.03229    
     49000   4.9            765.79859      765.73791      1886.8017      831.47603      306.08671      3.0140193     -2.6028335      0.098983807   -2.5038497      188.59458    
     49500   4.95           756.28577      756.39049      1855.8785      821.19207      301.97138      3.0452437     -2.6020003      0.097754221   -2.5042461      190.09044    
     50000   5              758.02714      757.43187      1862.6829      822.70492      305.31356      2.8168478     -2.6025728      0.097979304   -2.5045935      144.1858     
     50500   5.05           753.52968      752.27244      1852.7952      818.11294      301.47672      3.1904905     -2.6026113      0.09739798    -2.5052133      90.550656    
     51000   5.1            756.39849      755.1289       1858.5496      820.79089      305.68292      2.8596852     -2.6034232      0.097768791   -2.5056544      14.326359    
     51500   5.15           749.97755      749.01104      1835.192       814.89341      295.59448      2.8248562     -2.6030297      0.096938847   -2.5060908     -20.648362    
     52000   5.2            749.25604      748.08162      1839.273       813.40793      300.22272      2.9007266     -2.6033995      0.096845589   -2.5065539     -63.69727     
     52500   5.25           743.09113      741.3533       1821.0057      806.00202      302.74651      2.7768685     -2.6030612      0.096048739   -2.5070124     -86.628582    
     53000   5.3            749.29466      748.49308      1840.0224      813.054        303.01023      2.7608022     -2.6041197      0.09685058    -2.5072691     -152.1888     
     53500   5.35           748.53345      747.54553      1838.8886      812.41225      301.41234      2.6924893     -2.6045087      0.09675219    -2.5077565     -176.05987    
     54000   5.4            738.96792      738.7563       1796.8413      802.10293      297.05275      2.6749714     -2.603774       0.095515791   -2.5082582     -165.50592    
     54500   5.45           737.86285      736.70072      1806.6744      801.24417      294.22246      2.6821221     -2.6039884      0.095372954   -2.5086154     -208.80592    
     55000   5.5            734.47201      733.59162      1783.3406      796.01722      303.68859      2.6176659     -2.6037728      0.094934669   -2.5088382     -245.57934    
     55500   5.55           734.78189      733.87702      1773.7847      796.11488      305.48465      2.5154599     -2.6042314      0.094974723   -2.5092566     -273.47126    
     56000   5.6            739.63522      738.69717      1799.3319      801.97998      303.25413      2.4945896     -2.6053806      0.095602043   -2.5097786     -296.82992    
     56500   5.65           735.41619      734.6505       1793.9156      798.54583      293.53756      2.5038694     -2.6052086      0.095056709   -2.5101519     -282.08675    
     57000   5.7            737.3471       736.60463      1798.8912      800.12799      297.91125      2.5618718     -2.6058747      0.09530629    -2.5105684     -279.07633    
     57500   5.75           736.89532      735.99292      1790.7489      799.38604      299.49138      2.7604457     -2.6062246      0.095247896   -2.5109767     -282.30326    
     58000   5.8            733.60577      732.59673      1789.4789      795.76539      298.51947      2.5754881     -2.6060642      0.094822702   -2.5112415     -277.12124    
     58500   5.85           734.87818      733.97345      1797.0234      796.09517      306.39321      2.5641836     -2.6066956      0.094987168   -2.5117085     -274.56636    
     59000   5.9            731.24667      730.90805      1763.4739      793.43554      295.95489      2.8687251     -2.6067349      0.094517776   -2.5122171     -242.08641    
     59500   5.95           729.46596      728.80192      1760.089       790.67079      301.06472      2.5271671     -2.6070415      0.094287609   -2.5127539     -219.72568    
     60000   6              725.89562      725.77481      1752.9487      786.61119      300.91961      2.5338636     -2.6070096      0.093826122   -2.5131835     -216.65982    
     60500   6.05           730.34402      730.40978      1752.84        792.35965      296.2652       2.4661675     -2.6079597      0.094401103   -2.5135586     -211.22862    
     61000   6.1            724.43542      724.34268      1732.3576      784.3933       304.76489      2.460789      -2.6073407      0.093637383   -2.5137033     -146.12763    
Loop time of 1208.56 on 6 procs for 60000 steps with 28860 atoms

Performance: 0.429 ns/day, 55.952 hours/ns, 49.646 timesteps/s, 1.433 Matom-step/s
79.3% CPU use with 6 MPI tasks x 1 OpenMP threads

MPI task timing breakdown:
Section |  min time  |  avg time  |  max time  |%varavg| %total
---------------------------------------------------------------
Pair    | 655.66     | 720.05     | 776.86     | 160.7 | 59.58
Neigh   | 1.3389     | 1.5404     | 1.7687     |  12.5 |  0.13
Comm    | 219.19     | 274.27     | 338.83     | 255.2 | 22.69
Output  | 0.25845    | 0.27474    | 0.2975     |   2.5 |  0.02
Modify  | 173.66     | 176.35     | 177.95     |  11.5 | 14.59
Other   |            | 36.07      |            |       |  2.98

Nlocal:           4810 ave        5060 max        4550 min
Histogram: 1 0 1 1 0 1 0 0 1 1
Nghost:         2815.5 ave        3244 max        2264 min
Histogram: 1 1 0 0 0 0 2 0 0 2
Neighs:         184770 ave      225557 max      137410 min
Histogram: 1 0 1 0 0 2 0 0 0 2

Total # of neighbors = 1108619
Ave neighs/atom = 38.413687
Neighbor list builds = 167
Dangerous builds = 0
System init for write_data ...
Setting up Verlet run ...
  Unit style    : metal
  Current step  : 61000
  Time step     : 0.001
Per MPI rank memory allocation (min/avg/max) = 6.012 | 6.26 | 6.394 Mbytes
   Step          Time           Temp          c_Tnw         c_Ttrack       c_Tinner       c_Tsink        v_ke_max        PotEng         KinEng         TotEng         Press     
     61000   6.1            724.43542      724.34268      1732.3576      784.3933       304.76489      2.460789      -2.6073407      0.093637383   -2.5137033     -146.12763    
     61500   6.6            722.82149      722.85998      1686.7114      782.33465      306.26479      2.2005814     -2.6111725      0.093428773   -2.5177437      110.82237    
     62000   7.1            712.38059      711.11241      1617.5984      771.02816      301.88252      1.97058       -2.6137115      0.092079228   -2.5216322      85.025645    
     62500   7.6            706.2278       705.72253      1611.7726      764.48451      298.46511      2.4522731     -2.6166795      0.091283944   -2.5253956     -127.59807    
     63000   8.1            688.12236      687.46541      1542.5759      742.90894      304.65515      1.7834649     -2.617861       0.088943714   -2.5289173     -190.50161    
     63500   8.6            688.80239      689.00616      1519.1618      743.96768      302.68342      2.2208068     -2.6213995      0.089031612   -2.5323679      22.453122    
     64000   9.1            674.25731      673.84609      1460.747       727.32649      302.81287      1.6551289     -2.6228825      0.087151578   -2.5357309      6.6489732    
     64500   9.6            667.82869      667.08594      1430.7827      720.69336      297.81463      1.4045843     -2.6255968      0.086320643   -2.5392761     -106.97529    
     65000   10.1           661.42812      660.55569      1403.6338      713.04862      300.12484      1.7662119     -2.6279899      0.085493332   -2.5424966     -158.30599    
     65500   10.6           653.07217      653.06428      1349.3012      703.38487      300.92486      1.2797502     -2.6300824      0.084413278   -2.5456692     -67.340364    
     66000   11.1           643.48113      643.19307      1323.1636      692.47576      300.5613       1.2718298     -2.6320127      0.083173582   -2.5488391      12.179125    
     66500   11.6           639.28602      638.78656      1302.4931      687.31411      303.13346      1.8668338     -2.634783       0.08263134    -2.5521516     -93.275203    
     67000   12.1           630.30436      629.13946      1267.497       677.55896      299.5659       1.3483675     -2.6365866      0.08147041    -2.5551162     -121.42768    
     67500   12.6           628.86176      628.41196      1236.3997      674.24397      311.23482      1.1410993     -2.6392539      0.081283946   -2.55797       -66.733351    
     68000   13.1           618.65778      618.11731      1211.4296      663.92601      301.82624      1.1565294     -2.6408783      0.079965024   -2.5609133     -31.688737    
     68500   13.6           611.05922      610.61053      1176.489       655.01029      303.44934      1.1516117     -2.6426074      0.078982867   -2.5636246     -67.086025    
     69000   14.1           605.3472       605.74679      1167.4018      650.04505      292.50613      1.391984      -2.6449763      0.078244555   -2.5667317     -98.593151    
     69500   14.6           600.50257      599.73738      1132.1942      642.69719      305.18969      1.149097      -2.6468598      0.077618359   -2.5692414     -85.679218    
     70000   15.1           594.1309       593.96389      1117.0482      636.4324       298.06781      1.1480236     -2.6490287      0.076794785   -2.5722339     -11.945615    
     70500   15.6           590.50002      590.2609       1101.382       631.67486      302.32571      0.95340029    -2.6511305      0.076325473   -2.574805      -32.037668    
     71000   16.1           578.72242      578.38929      1057.306       618.42253      300.87199      1.1451874     -2.6519855      0.074803152   -2.5771823     -71.76525     
     71500   16.6           577.69246      577.41068      1055.3973      617.58335      298.50582      1.0895711     -2.6545011      0.074670024   -2.5798311     -54.749758    
     72000   17.1           571.25072      571.47512      1014.1475      608.91257      307.67178      1.0537798     -2.6558043      0.073837393   -2.5819669      14.955456    
     72500   17.6           569.04788      568.27825      1000.9637      606.78456      304.94432      1.013696      -2.6580423      0.073552663   -2.5844897     -26.130546    
     73000   18.1           565.6664       565.32552      1001.5176      604.40644      294.53552      1.0691822     -2.6599786      0.073115587   -2.586863      -54.509994    
     73500   18.6           557.70083      557.66944      975.44631      594.97669      296.82105      0.96982567    -2.6610055      0.072085992   -2.5889195     -71.441648    
     74000   19.1           553.38534      553.6028       954.1662       590.0713       296.63536      0.95820227    -2.6625676      0.071528191   -2.5910394     -25.358826    
     74500   19.6           549.38911      549.34306      937.46923      584.85468      301.18412      1.0086424     -2.6641745      0.071011655   -2.5931628     -3.5766106    
     75000   20.1           543.74408      544.01188      924.37514      578.87287      297.89588      0.86246347    -2.6655135      0.070282003   -2.5952315      38.172193    
     75500   20.6           541.89523      541.1185       914.25884      576.38512      300.52066      0.91945082    -2.6671808      0.070043029   -2.5971378     -19.880132    
     76000   21.1           536.07096      535.81041      889.829        569.7081       300.66638      1.2016593     -2.6682631      0.069290209   -2.5989729     -43.750236    
     76500   21.6           533.62856      533.40962      879.90351      567.75642      294.78688      1.0406974     -2.66999        0.068974515   -2.6010155     -9.0236899    
     77000   22.1           527.15183      526.31637      862.0422       559.90246      297.95277      0.84371069    -2.6711653      0.068137361   -2.603028       1.0009736    
     77500   22.6           524.99682      525.01312      845.52591      556.8385       302.16231      0.77113424    -2.6727724      0.067858813   -2.6049136     -30.748619    
     78000   23.1           519.07317      518.68176      833.16487      551.22434      294.0698       0.75831687    -2.6740177      0.067093149   -2.6069246      5.4998758    
     78500   23.6           519.973        520.02708      840.78007      551.74191      297.64677      0.93703406    -2.6757157      0.067209457   -2.6085062     -2.0946474    
     79000   24.1           516.21025      515.93511      812.80283      546.88376      301.55379      0.91106088    -2.6768418      0.0667231     -2.6101187     -15.842768    
     79500   24.6           509.81498      509.7288       793.79679      539.01344      305.48616      0.84634838    -2.6775402      0.065896475   -2.6116437      37.299654    
     80000   25.1           501.83452      501.97604      778.98912      531.15881      296.62234      0.78284287    -2.6781191      0.064864956   -2.6132542     -31.174838    
     80500   25.6           502.70475      502.85605      774.00809      531.34087      302.31194      1.062449      -2.6797175      0.064977438   -2.6147401     -14.507583    
     81000   26.1           496.34228      495.93015      753.73401      524.52906      299.09426      0.92838933    -2.6804586      0.064155052   -2.6163036      3.0597947    
     81500   26.6           495.79496      496.1553       748.74851      522.88897      306.1993       0.61638155    -2.6818527      0.064084308   -2.6177684      19.215097    
     82000   27.1           490.95447      490.39897      732.83558      517.7041       303.76902      0.69269802    -2.6828497      0.063458647   -2.6193911     -19.846267    
     82500   27.6           486.19504      485.08562      726.10056      512.71004      300.6513       0.94178989    -2.6837377      0.062843464   -2.6208943     -26.617385    
     83000   28.1           485.27863      485.023        717.48883      511.11258      304.50391      0.69404189    -2.6847057      0.062725012   -2.6219806      8.1597956    
     83500   28.6           482.22371      482.15032      708.64734      508.29482      299.78736      0.64853466    -2.6857444      0.062330147   -2.6234143     -6.9082625    
     84000   29.1           476.93087      477.33874      698.79768      500.90421      309.18328      0.60501692    -2.686264       0.061646017   -2.6246179     -88.929743    
     84500   29.6           474.37823      474.41611      691.94278      499.43988      299.00869      0.90038903    -2.6871569      0.061316074   -2.6258408     -63.662441    
     85000   30.1           472.35805      472.12713      687.21183      497.49558      296.4566       0.70146598    -2.6883873      0.061054954   -2.6273323     -1.9638615    
     85500   30.6           469.26877      469.15785      670.86742      493.48211      299.83836      0.64519141    -2.6890275      0.060655647   -2.6283719     -30.390129    
     86000   31.1           469.58048      469.65081      668.02235      493.35372      303.23208      0.6325817     -2.6902032      0.060695938   -2.6295073     -63.830003    
     86500   31.6           463.71614      463.43055      657.72888      487.23855      299.12264      0.6858988     -2.690655       0.059937939   -2.6307171     -18.877304    
     87000   32.1           460.17311      460.19248      644.23127      483.04931      300.10395      0.54538525    -2.6913956      0.059479982   -2.6319156     -11.98151     
     87500   32.6           458.38604      458.53134      630.25327      481.58352      296.06641      0.690398      -2.6922419      0.059248992   -2.6329929     -51.607539    
     88000   33.1           452.46285      452.69628      618.5376       473.88282      302.58919      0.64416268    -2.6924119      0.058483387   -2.6339285     -95.995815    
     88500   33.6           452.21062      452.40247      619.68         473.19779      305.36762      0.78345327    -2.6934646      0.058450785   -2.6350138     -24.954518    
     89000   34.1           450.32912      450.85212      615.77731      472.8942       292.43585      0.54914209    -2.69444        0.05820759    -2.6362324     -15.609987    
     89500   34.6           446.21418      446.45717      605.34622      467.3383       298.41049      0.57852953    -2.6950489      0.057675711   -2.6373732     -22.497094    
     90000   35.1           441.88507      442.12885      585.11037      461.95686      301.44943      0.66240783    -2.695125       0.05711615    -2.6380088     -46.284552    
     90500   35.6           443.20344      442.74532      592.96669      463.51915      301.06004      0.72294325    -2.6964388      0.057286555   -2.6391523     -67.946049    
     91000   36.1           441.09613      441.01895      583.72485      460.7046       303.9048       0.53991936    -2.6970575      0.057014175   -2.6400433     -93.121412    
     91500   36.6           438.2389       437.97843      578.84173      457.92369      300.51233      0.66134151    -2.6975         0.056644861   -2.6408551     -40.641882    
     92000   37.1           435.39554      434.82651      580.44421      455.7281       293.13196      0.49957728    -2.698287       0.056277341   -2.6420096     -29.82932     
     92500   37.6           430.78393      431.02771      567.72208      449.43415      300.30012      0.61483639    -2.698588       0.055681263   -2.6429067     -53.60226     
     93000   38.1           428.2807       428.54336      560.06914      446.50304      300.79252      0.52851091    -2.6991186      0.055357707   -2.6437609     -52.26765     
     93500   38.6           430.3485       430.14834      552.89443      448.01927      306.7235       0.56799178    -2.7001062      0.055624982   -2.6444812     -35.018251    
     94000   39.1           426.7931       427.0052       547.96478      443.72707      308.3267       0.56427621    -2.7003735      0.055165426   -2.645208      -74.521867    
     94500   39.6           423.42295      423.67055      546.25546      441.19209      299.10716      0.49234059    -2.700816       0.054729816   -2.6460862     -63.104556    
     95000   40.1           422.297        422.14822      542.01595      440.3047       296.31028      0.72598776    -2.7012769      0.05458428    -2.6466926     -34.621535    
     95500   40.6           419.88453      420.21963      530.96594      436.41871      304.21584      0.58705731    -2.7017679      0.054272454   -2.6474954     -28.710073    
     96000   41.1           418.84854      418.87202      534.70877      435.67908      301.10422      0.4361837     -2.7022977      0.054138546   -2.6481591     -75.171217    
     96500   41.6           416.58667      416.73319      522.18207      433.40042      298.95932      0.59813592    -2.7024401      0.053846188   -2.6485939     -66.33902     
     97000   42.1           414.77491      414.85251      517.48168      431.84382      295.36023      0.47980542    -2.7028292      0.053612007   -2.6492171     -51.910336    
     97500   42.6           415.24792      415.08672      514.85566      430.99956      305.05795      0.54197641    -2.7033537      0.053673147   -2.6496806     -45.844483    
     98000   43.1           411.96219      412.14989      506.56976      427.59343      302.61442      0.4642997     -2.7035667      0.053248447   -2.6503182     -7.4529463    
     98500   43.6           409.73523      410.08084      507.92998      425.42761      299.95868      0.45921533    -2.7039105      0.0529606     -2.6509499     -27.278443    
     99000   44.1           407.94078      407.73126      501.06079      423.26573      300.73674      0.50432922    -2.704324       0.052728657   -2.6515953     -62.270244    
     99500   44.6           407.39012      407.30839      503.27806      422.92805      298.69447      0.45268687    -2.7047998      0.052657481   -2.6521423     -58.632368    
    100000   45.1           404.81898      404.74749      493.66032      420.27326      296.70844      0.45504117    -2.7048194      0.052325148   -2.6524942     -48.278475    
    100500   45.6           406.68629      406.46768      489.84329      421.79948      300.96485      0.45273607    -2.7055918      0.052566508   -2.6530253     -9.7311027    
    101000   46.1           406.34452      406.07484      489.60251      420.59801      306.64324      0.40256222    -2.7058399      0.052522332   -2.6533176     -62.394102    
    101500   46.6           404.61155      404.34052      491.54689      419.56457      300.0111       0.49163069    -2.7062951      0.052298335   -2.6539968     -61.76593     
    102000   47.1           401.59673      401.88633      477.27404      416.25287      299.07444      0.45671279    -2.7061308      0.051908653   -2.6542222     -28.623158    
    102500   47.6           404.1139       403.88711      483.24328      418.1512       305.92594      0.55809415    -2.7068753      0.052234012   -2.6546413     -27.017023    
    103000   48.1           404.06033      404.3072       473.21987      418.3215       304.3047       0.41916148    -2.7072492      0.052227088   -2.6550222     -61.771783    
    103500   48.6           397.58501      398.03788      469.51862      411.9838       296.86383      0.52527243    -2.7070745      0.051390115   -2.6556844     -30.380113    
    104000   49.1           396.18383      396.48852      466.27337      410.10959      298.77475      0.48297607    -2.7072948      0.051209005   -2.6560858     -36.302365    
    104500   49.6           394.10536      394.26669      463.25888      408.12001      296.07323      0.55644202    -2.7075508      0.05094035    -2.6566104     -27.197634    
    105000   50.1           394.08021      394.06567      456.03778      407.01524      303.60841      0.47965793    -2.7077874      0.0509371     -2.6568503     -51.274401    
    105500   50.6           394.82         394.55821      458.24713      408.8014       297.02092      0.50364883    -2.7083676      0.051032722   -2.6573349     -64.155423    
    106000   51.1           392.03976      392.42863      452.86041      405.07334      300.87724      0.43127067    -2.7081046      0.05067336    -2.6574312     -25.652574    
    106500   51.6           393.0812       393.74274      454.41745      405.85882      303.71145      0.43131276    -2.7087564      0.050807973   -2.6579484     -35.841139    
    107000   52.1           391.05713      390.55756      450.07509      403.94257      300.93183      0.39885744    -2.7089404      0.05054635    -2.6583941     -32.667082    
    107500   52.6           386.28391      385.99543      446.44514      398.88052      298.1798       0.38064139    -2.7088083      0.049929384   -2.6588789     -78.725594    
    108000   53.1           388.64686      388.73318      446.77333      402.15299      294.17429      0.41511608    -2.7094146      0.050234809   -2.6591798     -23.87187     
    108500   53.6           387.79182      387.41876      442.63614      400.39145      299.66696      0.44338258    -2.7095526      0.050124289   -2.6594283     -14.026042    
    109000   54.1           385.35792      385.50976      440.71197      398.75298      291.66221      0.48187569    -2.7095851      0.049809694   -2.6597754     -37.062135    
    109500   54.6           383.80164      383.6098       437.32432      395.30344      303.36358      0.43715073    -2.7093777      0.049608537   -2.6597691     -32.047186    
    110000   55.1           385.53687      385.19652      442.24103      397.82335      299.60433      0.45732435    -2.7099731      0.049832825   -2.6601403     -34.168599    
    110500   55.6           385.57528      385.41748      430.50116      397.14754      304.64426      0.40979626    -2.7102285      0.049837789   -2.6603907     -10.56597     
    111000   56.1           381.05455      380.65714      431.53861      392.7469       299.2814       0.38840916    -2.7099494      0.04925346    -2.660696      -56.184596    
    111500   56.6           383.93829      383.7622       438.28885      395.94388      299.97236      0.46792421    -2.7104742      0.049626199   -2.660848      -29.859674    
    112000   57.1           383.99596      383.97955      433.31624      395.75783      301.73671      0.43190366    -2.7106571      0.049633653   -2.6610234     -37.521112    
    112500   57.6           381.35553      381.49097      428.79197      392.86942      300.83214      0.41294726    -2.7106678      0.049292363   -2.6613754     -7.2802349    
    113000   58.1           383.38234      382.99205      426.94054      394.95332      302.45968      0.36036461    -2.711141       0.049554339   -2.6615866     -23.26991     
    113500   58.6           382.55091      382.65365      429.76605      394.10639      301.73661      0.4148417     -2.7112102      0.049446872   -2.6617633     -32.924011    
    114000   59.1           377.44164      377.43369      419.05078      388.91042      297.23301      0.33569267    -2.7110842      0.04878647    -2.6622977     -34.347966    
    114500   59.6           376.54881      376.39989      418.17856      387.02382      303.29915      0.37360491    -2.7110251      0.048671068   -2.662354      -46.529008    
    115000   60.1           379.9343       379.72384      421.70242      391.06132      302.11967      0.58644521    -2.711615       0.049108662   -2.6625064     -42.665414    
    115500   60.6           380.63311      380.42078      430.58917      391.86284      302.09938      0.44061459    -2.7119384      0.049198986   -2.6627394     -53.618499    
    116000   61.1           376.45461      376.66626      420.7237       387.16809      301.53493      0.45651942    -2.7115495      0.048658891   -2.6628906     -42.752045    
    116500   61.6           377.17606      377.3499       425.14466      388.14004      300.50237      0.42504726    -2.7119864      0.048752143   -2.6632343     -37.969011    
    117000   62.1           376.97954      376.69925      422.25185      387.47791      303.56633      0.40127341    -2.7119942      0.048726741   -2.6632674      0.60569416   
    117500   62.6           376.47445      376.2954       413.33381      387.03859      302.60056      0.38729393    -2.7120082      0.048661456   -2.6633468     -12.320104    
    118000   63.1           375.68711      375.91551      419.95138      386.65611      298.97786      0.42256236    -2.7118349      0.048559688   -2.6632752     -43.802797    
    118500   63.6           375.49233      375.33057      419.12193      386.27154      300.11208      0.43504306    -2.7121079      0.048534511   -2.6635733     -75.066253    
    119000   64.1           376.54456      376.93111      417.04827      387.32489      301.15679      0.37661579    -2.7120752      0.048670518   -2.6634047     -19.556139    
    119500   64.6           376.09559      376.15891      412.69413      386.80662      301.19295      0.36341357    -2.7125869      0.048612485   -2.6639745     -44.229569    
    120000   65.1           374.38082      374.69617      410.08001      384.38296      304.44198      0.46103801    -2.7125187      0.048390843   -2.6641279     -50.789802    
    120500   65.6           373.16769      372.96897      409.90724      382.79982      305.81952      0.4974204     -2.7125822      0.048234038   -2.6643482     -19.296704    
    121000   66.1           373.30396      373.27524      411.74405      382.47128      309.21086      0.39770352    -2.7127974      0.048251652   -2.6645457     -23.111102    
    121500   66.6           371.93676      371.99758      411.09806      382.44399      298.46019      0.38235893    -2.7129696      0.048074934   -2.6648947     -8.4925671    
    122000   67.1           371.53953      371.68999      407.18241      381.1964       304.01771      0.35420193    -2.7132626      0.04802359    -2.6652391     -23.519304    
    122500   67.6           370.64072      370.84715      401.05892      381.15894      297.08677      0.34062963    -2.7131095      0.047907413   -2.6652021     -7.3393364    
    123000   68.1           370.71933      370.73941      406.07648      381.12634      297.94422      0.36247727    -2.713256       0.047917574   -2.6653384     -31.614355    
    123500   68.6           368.521        368.25525      401.29634      377.90965      302.87662      0.36266069    -2.7131096      0.047633428   -2.6654762     -62.558328    
    124000   69.1           370.61698      370.66817      403.67098      379.91083      305.63699      0.3861351     -2.7134384      0.047904344   -2.665534      -35.384068    
    124500   69.6           367.44838      367.29066      399.57745      376.93121      301.14414      0.38906461    -2.7132636      0.047494785   -2.6657688     -20.715234    
    125000   70.1           367.56366      367.70162      400.40475      376.58192      304.51279      0.35717908    -2.7136137      0.047509686   -2.666104       4.9800692    
    125500   70.6           365.91187      366.14454      397.49818      375.95315      295.6965       0.39045348    -2.7135941      0.047296182   -2.6662979     -12.038786    
    126000   71.1           365.6562       365.37777      397.94779      376.09671      292.64507      0.39075877    -2.7136952      0.047263136   -2.6664321     -48.967238    
    126500   71.6           368.95193      368.76842      402.24353      378.30377      303.5654       0.44741867    -2.7139844      0.047689127   -2.6662952     -11.253405    
    127000   72.1           366.05965      366.07761      399.40165      375.52198      299.89864      0.39780215    -2.7139216      0.047315285   -2.6666064     -3.6193296    
    127500   72.6           365.81084      365.6237       396.75403      374.90004      302.26267      0.35738965    -2.7138493      0.047283124   -2.6665662      16.017929    
    128000   73.1           366.88992      367.00003      396.32252      376.4366       300.13845      0.40757287    -2.7140804      0.047422601   -2.6666578     -56.076637    
    128500   73.6           364.59036      364.52486      393.18843      374.47849      295.44719      0.40376974    -2.714073       0.04712537    -2.6669476     -27.75012     
    129000   74.1           365.01467      365.01645      395.80032      374.7663       296.82738      0.45043327    -2.7141593      0.047180214   -2.6669791     -30.96876     
    129500   74.6           364.35122      364.41976      402.94321      373.71519      298.87847      0.33943751    -2.7140054      0.047094459   -2.6669109     -27.72194     
    130000   75.1           366.76002      366.96684      399.07737      375.84022      303.27514      0.39991916    -2.7143337      0.047405811   -2.6669279      4.8468942    
    130500   75.6           365.82292      366.00354      396.33532      374.97724      301.81874      0.35838642    -2.7141994      0.047284685   -2.6669148     -42.58268     
    131000   76.1           366.72152      366.7677       400.10883      375.27867      306.89946      0.41679995    -2.7145745      0.047400835   -2.6671737     -28.244386    
    131500   76.6           363.94559      363.82997      392.45631      373.39929      297.84436      0.42368249    -2.7143463      0.047042029   -2.6673042      7.2428772    
    132000   77.1           364.42292      364.48908      391.25034      373.30937      302.29421      0.48165412    -2.7142486      0.047103727   -2.6671448     -11.094808    
    132500   77.6           362.79226      362.87211      395.1989       371.6479       300.87879      0.3780945     -2.7142332      0.046892955   -2.6673403     -60.684506    
    133000   78.1           362.97301      363.32156      393.49175      372.06754      299.3868       0.42886367    -2.7144792      0.046916319   -2.6675629     -30.273058    
    133500   78.6           363.76903      363.77284      389.28953      372.29492      304.16501      0.35133592    -2.7147231      0.047019208   -2.6677039     -11.412201    
    134000   79.1           361.4601       361.50386      391.14039      370.40221      298.94076      0.34848035    -2.7145898      0.046720766   -2.667869      -12.741251    
    134500   79.6           361.07888      361.04015      391.50727      370.40381      295.87863      0.32975675    -2.7145021      0.046671491   -2.6678306     -29.063001    
    135000   80.1           362.86345      362.76495      392.55452      371.04435      305.67509      0.3953661     -2.7146908      0.046902157   -2.6677886     -71.686889    
    135500   80.6           362.3512       362.21045      392.37018      370.10775      308.13428      0.36523666    -2.7146689      0.046835945   -2.6678329     -27.675855    
    136000   81.1           360.85426      360.95817      391.7418       369.77524      298.48273      0.36084463    -2.7146296      0.046642458   -2.6679871     -8.4594962    
    136500   81.6           361.37736      361.22009      390.00415      369.554        304.21842      0.42888612    -2.714724       0.046710071   -2.6680139     -25.207933    
    137000   82.1           364.00404      364.20488      394.75472      372.60035      303.90697      0.35714652    -2.7151061      0.047049585   -2.6680565     -51.898509    
    137500   82.6           361.5028       361.38879      388.52171      369.33473      306.75781      0.49222748    -2.7148004      0.046726285   -2.6680742     -76.839297    
    138000   83.1           362.40414      362.35757      394.59095      371.95481      295.62345      0.37913943    -2.715126       0.046842788   -2.6682832      12.152112    
    138500   83.6           362.17887      362.41384      388.14483      370.46969      304.22057      0.44549544    -2.7151021      0.046813671   -2.6682885     -29.612298    
    139000   84.1           362.1224       362.32982      387.53554      370.91072      300.68018      0.34644933    -2.7148055      0.046806372   -2.6679992     -57.963442    
    139500   84.6           359.10234      359.28334      382.80427      368.34184      294.49985      0.32681552    -2.7148929      0.046416013   -2.6684769     -38.558983    
    140000   85.1           360.74874      360.67694      384.16955      369.37069      300.47121      0.42653682    -2.7147609      0.046628819   -2.6681321     -5.0143375    
    140500   85.6           362.84468      362.50439      383.32038      371.5003       302.33197      0.31094849    -2.715008       0.046899731   -2.6681082     -36.775262    
    141000   86.1           359.0286       358.99465      380.11934      367.23734      301.64423      0.3850642     -2.7146024      0.046406481   -2.6681959     -73.371806    
    141500   86.6           360.42598      360.31616      386.36463      368.29225      305.44023      0.37507984    -2.7149028      0.0465871     -2.6683157     -19.98472     
    142000   87.1           363.46268      363.43679      391.36252      372.33892      301.40519      0.40389723    -2.7151314      0.046979611   -2.6681518     -1.2667068    
    142500   87.6           359.54476      359.36848      384.58304      368.90739      294.0801       0.34553505    -2.7147826      0.046473197   -2.6683094     -53.720677    
    143000   88.1           360.10761      359.95119      383.14368      367.78396      306.45176      0.36865024    -2.7148852      0.046545949   -2.6683393     -70.393758    
    143500   88.6           359.88331      359.65782      381.15921      368.7182       298.11444      0.34231117    -2.7149955      0.046516957   -2.6684786     -20.076899    
    144000   89.1           362.04188      362.25831      382.70454      370.11808      305.58645      0.45139476    -2.7154537      0.046795964   -2.6686577      20.079206    
    144500   89.6           359.52315      359.69019      382.20113      368.25585      298.46971      0.36487411    -2.715129       0.046470404   -2.6686586     -20.857118    
    145000   90.1           358.39217      358.78686      378.87442      367.4755       294.88306      0.31010022    -2.7152619      0.046324218   -2.6689376     -64.482623    
    145500   90.6           357.62892      358.01904      382.98881      365.89732      299.82637      0.3133305     -2.715142       0.046225564   -2.6689164     -42.432224    
    146000   91.1           358.79149      358.80613      381.04003      367.36587      298.84651      0.46317075    -2.7153719      0.046375832   -2.668996      -23.446504    
    146500   91.6           360.78446      360.52282      383.90566      368.90037      304.05068      0.48320107    -2.7155633      0.046633436   -2.6689299      26.015988    
    147000   92.1           359.99514      360.2455       380.46124      368.07014      303.54753      0.40790292    -2.71523        0.046531411   -2.6686986     -31.73985     
    147500   92.6           357.79842      357.5807       384.59251      366.51095      296.88571      0.39628605    -2.7152705      0.046247473   -2.6690231     -66.653656    
    148000   93.1           358.78799      359.07999      379.87261      367.05685      300.98255      0.36453524    -2.7153935      0.046375381   -2.6690181     -29.806007    
    148500   93.6           359.57564      359.57058      380.31059      367.46281      304.44329      0.40464979    -2.7154484      0.046477189   -2.6689712     -32.613359    
    149000   94.1           358.81237      359.06492      380.7514       366.00754      308.52579      0.35423421    -2.7156627      0.046378532   -2.6692842     -1.2776787    
    149500   94.6           359.72719      359.55898      386.13973      366.88155      309.72665      0.38047651    -2.715513       0.046496778   -2.6690162     -60.24868     
    150000   95.1           360.55464      360.85043      387.04581      368.31041      306.34271      0.40787855    -2.7157086      0.04660373    -2.6691049     -31.809533    
    150500   95.6           358.48732      358.77969      385.71062      366.80854      300.31509      0.30485394    -2.7155804      0.046336517   -2.6692439     -35.036345    
    151000   96.1           356.61042      356.66186      385.28126      364.52254      301.3025       0.35950959    -2.7152831      0.046093917   -2.6691892     -9.5910177    
    151500   96.6           355.63632      355.72999      379.82007      363.33541      301.81997      0.41204349    -2.7153869      0.04596801    -2.6694189     -31.363361    
    152000   97.1           357.04141      357.32453      382.87761      364.77218      303.00356      0.37888018    -2.7154488      0.046149625   -2.6692991     -23.705028    
    152500   97.6           357.45325      357.13976      381.13896      364.25606      309.91382      0.35085863    -2.7155689      0.046202858   -2.6693661      0.63724003   
    153000   98.1           357.81149      358.05774      379.58433      365.18201      306.29665      0.33848564    -2.7153864      0.046249163   -2.6691373     -51.239187    
    153500   98.6           358.83435      358.67932      386.74603      367.04551      301.43296      0.35447664    -2.7156662      0.046381372   -2.6692848     -45.135106    
    154000   99.1           358.17119      358.37296      384.26065      366.81447      297.74355      0.3741499     -2.715738       0.046295656   -2.6694423     -22.645736    
    154500   99.6           359.57777      359.66046      382.99007      367.19441      306.33988      0.40715328    -2.7158764      0.046477464   -2.669399      -17.975313    
    155000   100.1          355.90395      356.20277      382.62955      364.37855      296.6569       0.34127146    -2.7154918      0.046002602   -2.6694892      9.769582     
    155500   100.6          358.27306      358.40764      383.54296      365.73746      306.10091      0.36324811    -2.7156564      0.046308823   -2.6693476     -45.924386    
    156000   101.1          358.54357      358.36468      381.78464      366.48811      303.00923      0.35908336    -2.7155637      0.046343789   -2.6692199     -49.002746    
    156500   101.6          359.04894      358.72535      377.94876      367.0001       303.46834      0.35967189    -2.7155458      0.04640911    -2.6691367     -38.94104     
    157000   102.1          360.45435      360.53221      383.08438      368.56661      303.74594      0.40868393    -2.7157428      0.046590767   -2.6691521     -21.681694    
    157500   102.6          359.7894       359.98092      378.63805      367.79992      303.79335      0.34761149    -2.7155413      0.046504819   -2.6690365     -3.9242989    
    158000   103.1          359.19962      359.21258      379.2909       368.19394      296.31407      0.4327745     -2.7158122      0.046428587   -2.6693836     -33.828364    
    158500   103.6          357.7307       357.70752      379.19285      366.33906      297.54757      0.33550432    -2.7154693      0.04623872    -2.6692306     -48.053234    
    159000   104.1          360.07151      359.99672      376.74574      369.01134      297.56778      0.37014128    -2.7158136      0.046541283   -2.6692724     -36.272758    
    159500   104.6          357.96201      358.2062       377.74989      366.48296      298.39099      0.46866155    -2.7154892      0.046268617   -2.6692206     -19.279162    
    160000   105.1          359.9201       359.893        378.02473      368.55392      299.55922      0.32458585    -2.7158891      0.046521712   -2.6693674     -39.680187    
    160500   105.6          359.9576       360.32877      380.6017       367.65633      306.14498      0.31914206    -2.7158739      0.046526559   -2.6693474     -53.019226    
    161000   106.1          356.49698      356.27652      371.93785      364.0616       303.62252      0.34003758    -2.7156272      0.046079254   -2.669548      -46.251682    
    161500   106.6          355.61701      355.62942      368.4492       363.94896      297.3689       0.36097949    -2.7157515      0.045965514   -2.669786      -52.169828    
    162000   107.1          357.43194      357.56128      380.93449      365.86851      298.4517       0.35024588    -2.7157895      0.046200104   -2.6695894     -12.07506     
    162500   107.6          356.20896      356.06225      381.32841      364.35865      299.23733      0.34349291    -2.7156574      0.046042027   -2.6696154     -27.683967    
    163000   108.1          357.32842      357.26644      375.15346      365.28416      301.71533      0.39087044    -2.7157282      0.046186724   -2.6695415     -31.533362    
    163500   108.6          356.18116      356.53146      371.62746      364.2913       299.48644      0.35636843    -2.7155179      0.046038433   -2.6694795     -9.7557195    
    164000   109.1          357.42104      357.48415      377.86263      365.70352      299.51979      0.38614222    -2.7156517      0.046198694   -2.669453      -50.254812    
[...]
    318500   263.6          299.49184      299.33451      297.35349      300.2733       294.10257      0.30797871    -2.7245121      0.038711018   -2.6858011     -42.18491     
    319000   264.1          300.03957      300.10625      298.12495      300.33705      298.03959      0.28665965    -2.7249336      0.038781815   -2.6861518     -63.853817    
    319500   264.6          298.02386      298.38704      296.24439      297.73938      300.09864      0.27911355    -2.7249212      0.038521273   -2.6863999     -31.49355     
    320000   265.1          299.78635      300.03905      300.14625      299.53609      301.62203      0.30899018    -2.725122       0.038749085   -2.6863729     -8.5699793    
    320500   265.6          299.27387      299.57077      297.67054      299.24497      299.55925      0.27125559    -2.7248423      0.038682843   -2.6861594     -48.209415    
    321000   266.1          299.08196      299.33141      299.07202      299.0507       299.38381      0.28274126    -2.7248858      0.038658038   -2.6862277     -40.088651    
    321500   266.6          299.94936      300.00603      301.30403      299.81711      300.95865      0.27884775    -2.7249185      0.038770154   -2.6861483     -22.930972    
    322000   267.1          300.41776      300.58218      298.38728      299.9226       303.96854      0.29938855    -2.7251314      0.038830698   -2.6863007     -47.819117    
    322500   267.6          298.97548      298.77365      296.67919      298.68089      301.12127      0.28064679    -2.724938       0.038644274   -2.6862937     -52.263822    
    323000   268.1          301.29206      301.49643      300.41041      301.44033      300.33732      0.27432392    -2.724764       0.038943706   -2.6858202     -34.748873    
    323500   268.6          303.03293      302.71603      301.02678      302.54202      306.55465      0.34047078    -2.7246694      0.039168723   -2.6855007     -42.698485    
    324000   269.1          301.96351      301.75405      296.65646      301.8266       303.00596      0.28677763    -2.7246055      0.039030494   -2.685575      -41.187542    
    324500   269.6          301.59696      301.68081      302.51725      300.45772      309.65843      0.35884227    -2.7247131      0.038983116   -2.68573       -50.444723    
    325000   270.1          300.08653      300.29824      302.90894      300.64738      296.24223      0.34359692    -2.7244924      0.038787885   -2.6857045     -63.070386    
    325500   270.6          302.74155      302.74846      302.91325      303.28049      299.05144      0.38839619    -2.7247784      0.039131061   -2.6856473     -48.592913    
    326000   271.1          297.56277      297.56963      297.3026       296.98544      301.68824      0.274011      -2.724786       0.038461675   -2.6863243     -33.674715    
    326500   271.6          297.65038      297.88719      298.35893      296.89074      303.05256      0.27453925    -2.7246769      0.038472998   -2.6862039     -57.577544    
    327000   272.1          301.34819      301.63276      304.27649      301.92554      297.38866      0.2853664     -2.7250264      0.038950961   -2.6860754     -26.698067    
    327500   272.6          300.78725      300.41981      304.7593       300.80214      300.76642      0.28332065    -2.7247582      0.038878456   -2.6858797      5.5066331    
    328000   273.1          302.71689      302.50689      303.91758      302.12435      306.95025      0.36012879    -2.725264       0.039127873   -2.6861361     -56.367826    
    328500   273.6          296.84549      296.75103      295.72524      296.58418      298.7577       0.33539777    -2.7246359      0.038368961   -2.6862669     -31.907017    
    329000   274.1          300.02273      299.82895      298.68351      300.11896      299.43199      0.31235586    -2.7250276      0.038779637   -2.6862479     -47.020085    
    329500   274.6          298.58511      298.33158      295.81369      298.13274      301.83574      0.2809305     -2.7247497      0.038593817   -2.6861559     -25.035442    
    330000   275.1          298.69199      298.3868       297.6293       298.57166      299.61747      0.32350224    -2.7247513      0.038607632   -2.6861437     -36.332328    
    330500   275.6          299.23849      298.86839      302.66658      299.46047      297.76705      0.27031184    -2.7251235      0.038678271   -2.6864452     -17.993014    
    331000   276.1          300.71646      301.04063      300.52246      301.07662      298.27778      0.25971198    -2.7252744      0.038869307   -2.6864051     -20.164346    
    331500   276.6          298.89385      298.82551      298.20581      298.90316      298.91151      0.32886961    -2.7249532      0.038633723   -2.6863194     -41.296846    
    332000   277.1          300.31268      300.32483      299.7487       299.94785      302.9508       0.28946143    -2.724832       0.038817116   -2.6860149     -17.479755    
    332500   277.6          298.95741      298.99511      298.9293       299.05651      298.34629      0.35313343    -2.7248664      0.038641939   -2.6862245     -41.860528    
    333000   278.1          300.06619      300.00785      301.4524       299.7961       302.04073      0.31213745    -2.7250394      0.038785255   -2.6862542     -18.502825    
    333500   278.6          300.68494      300.88464      302.66616      300.42732      302.57237      0.29314008    -2.7248953      0.038865232   -2.68603       -69.591701    
    334000   279.1          302.1837       301.90551      301.77733      302.32859      301.25286      0.29195704    -2.7246948      0.039058955   -2.6856359     -37.892878    
    334500   279.6          300.42037      299.99905      301.38745      300.69053      298.61186      0.31070453    -2.7247436      0.038831035   -2.6859126      6.0496793    
    335000   280.1          299.96769      300.04236      300.57248      299.7415       301.63486      0.27276971    -2.7249342      0.038772524   -2.6861616     -28.677033    
    335500   280.6          300.1356       300.19067      305.60787      300.80482      295.5325       0.2704359     -2.7245783      0.038794228   -2.685784      -58.835542    
    336000   281.1          299.95059      300.04009      301.9693       300.65011      295.1352       0.30910016    -2.7248176      0.038770313   -2.6860473     -45.175947    
    336500   281.6          302.09986      301.9015       302.73468      301.96931      303.09785      0.3027168     -2.7246269      0.039048118   -2.6855788      0.14386016   
    337000   282.1          299.96713      299.99603      302.31617      300.209        298.35659      0.29828016    -2.7247669      0.038772452   -2.6859945     -29.606093    
    337500   282.6          300.09414      300.43261      299.84164      300.38416      298.14644      0.33352158    -2.7247677      0.038788869   -2.6859788     -55.371478    
    338000   283.1          301.37537      301.96197      304.23062      302.41908      294.1501       0.29421968    -2.7250417      0.038954474   -2.6860872     -66.869842    
    338500   283.6          298.80677      298.94792      299.57979      298.97269      297.72771      0.33334554    -2.7248301      0.038622468   -2.6862076     -30.762147    
    339000   284.1          298.4707       298.71687      300.92789      298.77103      296.45033      0.30158146    -2.7252133      0.038579029   -2.6866343     -73.012441    
    339500   284.6          296.3597       296.56395      297.6935       297.14641      290.93277      0.28017642    -2.7247224      0.038306171   -2.6864162     -28.9643      
    340000   285.1          299.6889       299.612        297.87592      300.04722      297.26274      0.38811061    -2.7251617      0.038736488   -2.6864252      0.58339695   
    340500   285.6          299.98501      299.78768      298.24187      299.65821      302.35676      0.29182109    -2.7248806      0.038774763   -2.6861059     -36.753383    
    341000   286.1          300.6522       300.7901       299.45592      300.38569      302.60193      0.28224758    -2.7249389      0.038861001   -2.6860779     -33.691796    
    341500   286.6          301.40868      301.42368      297.25576      301.74417      299.14285      0.28538342    -2.7250929      0.038958779   -2.6861341     -26.752918    
    342000   287.1          298.57677      298.54378      297.67454      298.36403      300.14936      0.2851169     -2.7251045      0.038592739   -2.6865117     -6.2974743    
    342500   287.6          299.11303      299.22693      293.88323      298.71868      301.95753      0.3247431     -2.7247326      0.038662054   -2.6860705     -22.892996    
    343000   288.1          299.70966      299.65941      302.82432      300.12713      296.86931      0.30464177    -2.7246984      0.038739172   -2.6859592     -38.025745    
    343500   288.6          302.55817      302.47538      306.39895      303.09727      298.86691      0.31225384    -2.7250708      0.039107358   -2.6859634     -43.352715    
    344000   289.1          300.21525      299.92291      298.75465      300.2459       300.08385      0.32391668    -2.7249399      0.038804522   -2.6861353     -16.68342     
    344500   289.6          300.42795      300.41892      301.55171      300.32646      301.22202      0.33939223    -2.7249892      0.038832015   -2.6861572      0.24281429   
    345000   290.1          302.83015      302.74459      304.13731      302.84505      302.80979      0.4382769     -2.724954       0.039142513   -2.6858115     -55.142622    
    345500   290.6          299.27406      298.98057      298.8704       298.60661      304.03102      0.3308716     -2.7248883      0.038682868   -2.6862054     -55.810449    
    346000   291.1          300.58543      300.69565      302.27675      300.76474      299.41312      0.32748718    -2.7251095      0.03885237    -2.6862572     -18.402005    
    346500   291.6          299.38959      299.41272      294.39554      299.57458      298.17718      0.30287843    -2.7247958      0.038697801   -2.686098      -32.607784    
    347000   292.1          300.27098      300.56517      305.50242      299.77944      303.79636      0.30096337    -2.7245791      0.038811725   -2.6857674     -23.034736    
    347500   292.6          302.91645      302.92736      306.95742      301.90033      310.11612      0.31500295    -2.7248323      0.039153667   -2.6856786     -38.230398    
    348000   293.1          301.22438      301.23008      304.61982      300.85179      303.91704      0.29320436    -2.7245246      0.038934958   -2.6855897     -38.563289    
    348500   293.6          300.25558      300.17208      300.74947      299.75556      303.84042      0.34254942    -2.7247309      0.038809736   -2.6859211     -31.808236    
    349000   294.1          302.22756      302.31201      300.33795      302.06545      303.4466       0.29881282    -2.7248232      0.039064625   -2.6857586     -21.209383    
    349500   294.6          300.80962      300.82652      304.58204      301.12841      298.66063      0.27821028    -2.7248047      0.038881348   -2.6859234     -50.946835    
    350000   295.1          299.06673      299.05498      297.30405      299.27337      297.70264      0.30027284    -2.724662       0.038656069   -2.6860059     -15.561596    
    350500   295.6          300.77535      301.00515      301.78618      300.74735      301.05484      0.27525824    -2.7248946      0.038876918   -2.6860176     -55.681812    
    351000   296.1          301.63313      301.50128      301.60693      301.88388      299.96076      0.36140159    -2.7249283      0.038987791   -2.6859405     -11.379304    
    351500   296.6          301.52105      301.65151      299.02134      301.75615      299.9583       0.32659934    -2.7252156      0.038973304   -2.6862423     -54.123484    
    352000   297.1          300.30354      300.38019      291.98855      299.73864      304.34268      0.35083837    -2.7251754      0.038815934   -2.6863595     -53.401503    
    352500   297.6          297.9914       298.1063       300.18086      298.0254       297.83588      0.32566087    -2.7249943      0.038517076   -2.6864772     -19.193353    
    353000   298.1          298.99096      299.04629      297.75961      298.44248      302.91476      0.28488095    -2.7252495      0.038646275   -2.6866032     -32.127297    
    353500   298.6          298.99794      299.10374      301.5676       298.67339      301.35366      0.39213509    -2.7249176      0.038647178   -2.6862704     -40.41237     
    354000   299.1          300.12078      300.14343      300.4924       300.11838      300.22078      0.2909551     -2.724742       0.038792311   -2.6859497     -34.653389    
    354500   299.6          298.27839      298.28289      295.84249      298.06772      299.83632      0.31122611    -2.7249875      0.038554171   -2.6864334     -19.76691     
    355000   300.1          298.7582       298.6358       296.77571      299.00748      297.09538      0.28077819    -2.725322       0.03861619    -2.6867058     -8.371408     
    355500   300.6          295.7469       295.57115      293.69557      295.56671      297.09073      0.27198738    -2.7252168      0.038226963   -2.6869899     -39.173834    
    356000   301.1          297.55862      297.45378      296.27339      296.9563       301.85908      0.30123546    -2.7253185      0.038461138   -2.6868573     -74.990507    
    356500   301.6          298.52447      298.4747       294.83139      297.64017      304.79979      0.47572839    -2.7252017      0.038585979   -2.6866157     -50.811966    
    357000   302.1          298.37029      298.88973      293.30576      296.90205      308.7348       0.35424302    -2.7249193      0.03856605    -2.6863533     -13.589187    
    357500   302.6          296.39534      296.22935      298.6986       296.60542      295.00638      0.35092504    -2.724997       0.038310776   -2.6866862     -38.788264    
    358000   303.1          298.16457      298.12843      299.04003      297.94065      299.81532      0.30262888    -2.7249814      0.03853946    -2.6864419     -55.774981    
    358500   303.6          302.64024      302.37108      302.96842      302.60466      302.97332      0.31188409    -2.7247973      0.039117966   -2.6856793     -21.66893     
    359000   304.1          300.16866      299.98364      299.82692      300.03855      301.16304      0.30444468    -2.7245491      0.038798501   -2.6857506     -37.294471    
    359500   304.6          300.31373      300.23182      297.35007      300.81701      296.87262      0.31695197    -2.7248816      0.038817251   -2.6860643     -37.207381    
    360000   305.1          299.2682       299.29444      301.0014       299.02089      301.08306      0.3331875     -2.7249582      0.038682111   -2.6862761     -36.187812    
    360500   305.6          297.55354      297.50788      298.1666       297.55385      297.63391      0.27617318    -2.7246117      0.038460482   -2.6861513     -35.883493    
    361000   306.1          300.36403      300.39792      296.4886       300.05055      302.64255      0.30384724    -2.7249823      0.038823753   -2.6861585     -15.121701    
Loop time of 850.654 on 6 procs for 100000 steps with 28860 atoms

Performance: 10.157 ns/day, 2.363 hours/ns, 117.557 timesteps/s, 3.393 Matom-step/s
99.4% CPU use with 6 MPI tasks x 1 OpenMP threads

MPI task timing breakdown:
Section |  min time  |  avg time  |  max time  |%varavg| %total
---------------------------------------------------------------
Pair    | 625.11     | 656.31     | 680.46     |  72.6 | 77.15
Neigh   | 2.3858     | 2.5577     | 2.7477     |   7.7 |  0.30
Comm    | 137.17     | 160.94     | 191.79     | 144.5 | 18.92
Output  | 0.032055   | 0.036871   | 0.04325    |   1.9 |  0.00
Modify  | 21.188     | 22.913     | 24.811     |  23.9 |  2.69
Other   |            | 7.901      |            |       |  0.93

Nlocal:           4810 ave        5109 max        4573 min
Histogram: 2 0 1 0 1 0 0 0 1 1
Nghost:        2889.83 ave        3364 max        2261 min
Histogram: 1 0 1 0 1 0 0 0 2 1
Neighs:         197773 ave      222169 max      178075 min
Histogram: 1 1 0 0 1 2 0 0 0 1

Total # of neighbors = 1186640
Ave neighs/atom = 41.117117
Neighbor list builds = 424
Dangerous builds = 0
WARNING: No fixes with time integration, atoms won't move
For more information see https://docs.lammps.org/err0028 (src/verlet.cpp:60)
Setting up Verlet run ...
  Unit style    : metal
  Current step  : 0
  Time step     : 0.001
Per MPI rank memory allocation (min/avg/max) = 5.298 | 5.618 | 5.685 Mbytes
   Step          Time           Temp          c_Tnw         c_Ttrack       c_Tinner       c_Tsink        v_ke_max        PotEng         KinEng         TotEng         Press     
         0   0              300.36403      300.39792      296.4886       300.05055      302.64255      0.30384724    -2.7249823      0.038823753   -2.6861585     -15.121701    
       500   0.5            300.36403      300.39792      296.4886       300.05055      302.64255      0.30384724    -2.7249823      0.038823753   -2.6861585     -15.121701    
      1000   1              300.36403      300.39792      296.4886       300.05055      302.64255      0.30384724    -2.7249823      0.038823753   -2.6861585     -15.121701    
      1500   1.5            300.36403      300.39792      296.4886       300.05055      302.64255      0.30384724    -2.7249823      0.038823753   -2.6861585     -15.121701    
      2000   2              300.36403      300.39792      296.4886       300.05055      302.64255      0.30384724    -2.7249823      0.038823753   -2.6861585     -15.121701    
      2500   2.5            300.36403      300.39792      296.4886       300.05055      302.64255      0.30384724    -2.7249823      0.038823753   -2.6861585     -15.121701    
      3000   3              300.36403      300.39792      296.4886       300.05055      302.64255      0.30384724    -2.7249823      0.038823753   -2.6861585     -15.121701    
      3500   3.5            300.36403      300.39792      296.4886       300.05055      302.64255      0.30384724    -2.7249823      0.038823753   -2.6861585     -15.121701    
      4000   4              300.36403      300.39792      296.4886       300.05055      302.64255      0.30384724    -2.7249823      0.038823753   -2.6861585     -15.121701    
      4500   4.5            300.36403      300.39792      296.4886       300.05055      302.64255      0.30384724    -2.7249823      0.038823753   -2.6861585     -15.121701    
      5000   5              300.36403      300.39792      296.4886       300.05055      302.64255      0.30384724    -2.7249823      0.038823753   -2.6861585     -15.121701    
Loop time of 40.7693 on 6 procs for 5000 steps with 28860 atoms

Performance: 10.596 ns/day, 2.265 hours/ns, 122.641 timesteps/s, 3.539 Matom-step/s
99.4% CPU use with 6 MPI tasks x 1 OpenMP threads

MPI task timing breakdown:
Section |  min time  |  avg time  |  max time  |%varavg| %total
---------------------------------------------------------------
Pair    | 31.039     | 32.79      | 34.802     |  20.1 | 80.43
Neigh   | 0          | 0          | 0          |   0.0 |  0.00
Comm    | 5.8319     | 7.8182     | 9.5411     |  40.4 | 19.18
Output  | 0.0016616  | 0.0017947  | 0.0018552  |   0.1 |  0.00
Modify  | 0.0028696  | 0.0030238  | 0.0032879  |   0.3 |  0.01
Other   |            | 0.1565     |            |       |  0.38

Nlocal:           4810 ave        5098 max        4572 min
Histogram: 1 1 1 0 1 0 0 0 0 2
Nghost:        2888.17 ave        3359 max        2253 min
Histogram: 1 0 1 0 1 0 0 0 2 1
Neighs:         197817 ave      222270 max      178217 min
Histogram: 1 1 0 0 1 2 0 0 0 1

Total # of neighbors = 1186903
Ave neighs/atom = 41.12623
Neighbor list builds = 0
Dangerous builds = 0
System init for write_data ...
Total wall time: 1:15:54
